LAMMPS (2 Aug 2023 - Update 2)
OMP_NUM_THREADS environment is not set. Defaulting to 1 thread. (src/comm.cpp:98)
  using 1 OpenMP thread(s) per MPI task
Loaded 1 plugins from C:\Users\Ratish Panda\AppData\Local\LAMMPS 64-bit 2Aug2023-MSMPI with Python\plugins
# Tensile Test Simulation in LAMMPS

# Initialize
units metal
boundary p p p
atom_style atomic

# Specify the number of OpenMP threads
package omp 4
set 4 OpenMP thread(s) per MPI task
using multi-threaded neighbor list subroutines

# Read data file (output from previous steps)
read_data NiCoCrFe_pka_5keV_final.lmp
Reading data file ...
  orthogonal box = (0.80381162 0.80381162 0.80381162) to (161.64619 161.64619 161.64619)
  2 by 1 by 2 MPI processor grid
  reading atoms ...
  364500 atoms
  reading velocities ...
  364500 velocities
  read_data CPU = 4.036 seconds

# Define potential (EAM potential for Nickel)
pair_style eam/alloy
pair_coeff * * FeNiCrCoCu-heafixed.setfl Ni Co Cr Fe

neighbor	 1 bin
neigh_modify every 1 delay 0 check yes

# Define relaxation parameters
reset_timestep 0
timestep 0.01
fix 1 all npt temp 300 300 0.8 iso 0 0 1 drag 1
thermo 100
thermo_style custom time step temp press etotal

# Relaxation for 20 ps
run 2000
No /omp style for force computation currently active
Neighbor list info ...
  update: every = 1 steps, delay = 0 steps, check = yes
  max neighbors/atom: 2000, page size: 100000
  master list distance cutoff = 6.80375
  ghost atom cutoff = 6.80375
  binsize = 3.401875, bins = 48 48 48
  1 neighbor lists, perpetual/occasional/extra = 1 0 0
  (1) pair eam/alloy, perpetual
      attributes: half, newton on, omp
      pair build: half/bin/atomonly/newton/omp
      stencil: half/bin/3d
      bin: standard
Per MPI rank memory allocation (min/avg/max) = 64.34 | 64.43 | 64.72 Mbytes
     Time         Step          Temp          Press          TotEng    
 0                      0   364.40726     -26429.447     -1554641      
 1                    100   359.47482      109.22953     -1555790.4    
 2                    200   352.49821     -63.619918     -1556547.8    
 3                    300   345.29837      28.923296     -1557224.7    
 4                    400   338.73326     -34.295382     -1557828      
 5                    500   333.26989      248.91674     -1558365.2    
 6                    600   328.35322      108.54366     -1558844.7    
 7                    700   324.15308      36.72776      -1559266.2    
 8                    800   319.88916      111.89073     -1559639.2    
 9                    900   316.33426      106.50678     -1559965.2    
 10                  1000   313.2522       61.8224       -1560251.2    
 11                  1100   311.2731       141.5132      -1560499.4    
 12                  1200   309.02505      46.373472     -1560711.6    
 13                  1300   307.26943     -68.36013      -1560892.8    
 14                  1400   305.2886      -54.777346     -1561042.9    
 15                  1500   304.20872     -79.27352      -1561170.6    
 16                  1600   303.0936      -33.186983     -1561274.6    
 17                  1700   301.73212      20.006473     -1561355.4    
 18                  1800   301.36518      113.99041     -1561419.6    
 19                  1900   300.63302      111.89879     -1561469.6    
 20                  2000   300.66593      12.809957     -1561503.1    
Loop time of 1396.59 on 16 procs for 2000 steps with 364500 atoms

Performance: 1.237 ns/day, 19.397 hours/ns, 1.432 timesteps/s, 521.986 katom-step/s
94.7% CPU use with 4 MPI tasks x 4 OpenMP threads

MPI task timing breakdown:
Section |  min time  |  avg time  |  max time  |%varavg| %total
---------------------------------------------------------------
Pair    | 1227.2     | 1235.6     | 1244.4     |  17.3 | 88.47
Neigh   | 59.911     | 60.56      | 61.055     |   5.5 |  4.34
Comm    | 38.372     | 47.579     | 55.526     |  88.5 |  3.41
Output  | 0.033906   | 0.036611   | 0.040158   |   1.3 |  0.00
Modify  | 47.886     | 47.986     | 48.111     |   1.3 |  3.44
Other   |            | 4.876      |            |       |  0.35

Nlocal:          91125 ave       91831 max       90418 min
Histogram: 1 1 0 0 0 0 0 0 1 1
Nghost:        40024.8 ave       40732 max       39326 min
Histogram: 1 1 0 0 0 0 0 0 1 1
Neighs:    6.01256e+06 ave 6.05609e+06 max 5.97275e+06 min
Histogram: 2 0 0 0 0 0 0 0 1 1

Total # of neighbors = 24050256
Ave neighs/atom = 65.981498
Neighbor list builds = 365
Dangerous builds = 0

# write output data
write_data NiCoCrFe_5KeV_Relaxed.lmp
System init for write_data ...
No /omp style for force computation currently active

#--------------------------
# Store final cell length for strain calculations
variable tmp equal "lx"
variable L0 equal ${tmp}
variable L0 equal 159.994900484267
print "Initial Length, L0: ${L0}"
Initial Length, L0: 159.994900484267

reset_timestep 0

fix 1 all npt temp 300 300 1 x 0 0 1 y 0 0 1 drag 1
variable srate equal 2.0e9
variable srate1 equal "v_srate / 1.0e12" # adjusting strain rate unit from per second to per picosecond
fix 2 all deform 1 z erate ${srate1} units box remap x
fix 2 all deform 1 z erate 0.002 units box remap x

# Output strain and stress info to file
# for units metal, pressure is in [bars] = 100 [kPa] = 1/10000 [GPa]
# p2, p3, p4 are in GPa
variable strain equal "(lz - v_L0)/v_L0"
variable p1 equal "v_strain"
variable p2 equal "-pxx/10000"
variable p3 equal "-pyy/10000"
variable p4 equal "-pzz/10000"
fix def1 all print 10 "${p1} ${p2} ${p3} ${p4}" file NiCoCrFe_Tensile_5KeV.def1.txt screen no

# dumping data
dump 1 all custom 1000 dump.NiCoCrFe_Tensile_5KeV_*.dump id type x y z
dump_modify 1 sort id

# Display thermo
thermo 100
thermo_style custom time step v_strain temp v_p2 v_p3 v_p4 ke pe press

# run tensile test for 100 ps
run 10000
No /omp style for force computation currently active
Per MPI rank memory allocation (min/avg/max) = 65.51 | 65.51 | 65.51 Mbytes
     Time         Step        v_strain         Temp           v_p2           v_p3           v_p4          KinEng         PotEng         Press     
 0                      0   1.4211308e-15  300.66593     -0.0071137354   0.0023692257   0.00090152274  14165.934     -1575669.1      12.809957    
 1                    100   0.002          300.22523      0.02253433     0.020181962    0.28347455     14145.17      -1575631.2     -1087.3028    
 2                    200   0.004          300.01625     -0.0023799369  -0.004154318    0.52988548     14135.324     -1575591.8     -1744.5041    
 3                    300   0.006          299.51043      0.00030879386 -0.010800467    0.79831175     14111.492     -1575513       -2626.0669    
 4                    400   0.008          299.46653      0.0052127842   0.0052597336   1.073375       14109.424     -1575433.9     -3612.8249    
 5                    500   0.01           299.87083      0.019295028    0.015455143    1.3453437      14128.472     -1575360       -4600.3129    
 6                    600   0.012          299.69205      0.0073305581   0.0054852784   1.5987409      14120.049     -1575240.4     -5371.8557    
 7                    700   0.014          299.73275      0.0078644335   0.015501426    1.8668726      14121.966     -1575119.7     -6300.795     
 8                    800   0.016          300.0147      -0.011324772   -0.014700102    2.1178177      14135.251     -1574998.6     -6972.6426    
 9                    900   0.018          299.45141      0.02126748     0.01803272     2.3960345      14108.711     -1574821.8     -8117.7825    
 10                  1000   0.02           299.89833      0.020094593    0.017678164    2.6563942      14129.768     -1574679.1     -8980.5564    
 11                  1100   0.022          299.32015      0.011996804    0.013649593    2.9119185      14102.527     -1574472.8     -9791.8831    
 12                  1200   0.024          299.33645     -0.0050804311  -0.012965102    3.1493908      14103.295     -1574278.8     -10437.818    
 13                  1300   0.026          299.73075     -0.0063069251  -0.0048906626   3.4037797      14121.872     -1574094.4     -11308.607    
 14                  1400   0.028          299.94932      0.00055601786 -0.0066577044   3.6477463      14132.17      -1573887.2     -12138.815    
 15                  1500   0.03           299.38276     -0.023770264   -0.025512451    3.882351       14105.477     -1573630       -12776.894    
 16                  1600   0.032          299.67017     -0.022806154   -0.030660205    4.1225359      14119.018     -1573402.6     -13563.565    
 17                  1700   0.034          299.34447     -0.012211598   -0.0016075973   4.3713796      14103.672     -1573133.5     -14525.201    
 18                  1800   0.036          299.7451      -0.015843447   -0.00062681452  4.6080324      14122.548     -1572887.4     -15305.207    
 19                  1900   0.038          299.30425      0.019886452    0.019492063    4.8614553      14101.778     -1572588.9     -16336.113    
 20                  2000   0.04           299.83185      0.0018260157   0.0028473295   5.0903898      14126.636     -1572326.7     -16983.544    
 21                  2100   0.042          299.74388     -0.012597265   -0.017938778    5.2991192      14122.491     -1572021.9     -17561.944    
 22                  2200   0.044          299.43827      0.0054265428   0.0022272439   5.539914       14108.092     -1571697.8     -18491.893    
 23                  2300   0.046          299.82692     -0.025985521   -0.022387056    5.7490877      14126.404     -1571395.9     -19002.384    
 24                  2400   0.048          299.88419     -0.0046042128  -0.0057433131   5.9889016      14129.102     -1571065.2     -19928.513    
 25                  2500   0.05           299.89742     -0.0062848274  -0.0076009483   6.2064657      14129.725     -1570724.6     -20641.933    
 26                  2600   0.052          299.70237     -0.018040371   -0.010455695    6.4255042      14120.535     -1570363.1     -21323.361    
 27                  2700   0.054          299.50068      0.018484794    0.017350125    6.6654466      14111.033     -1569990.4     -22337.605    
 28                  2800   0.056          299.39741     -0.0019615471   0.0025596998   6.8748888      14106.167     -1569613.5     -22918.29     
 29                  2900   0.058          299.42647     -0.013653961   -0.014796471    7.0813485      14107.536     -1569230.4     -23509.66     
 30                  3000   0.06           299.72154     -0.0048752678  -0.0015418686   7.306094       14121.438     -1568852.4     -24332.256    
 31                  3100   0.062          299.60009      0.016361446    0.02057683     7.5410432      14115.716     -1568443.5     -25259.938    
 32                  3200   0.064          299.61363      0.013338458    0.0076679118   7.7491551      14116.354     -1568031.4     -25900.538    
 33                  3300   0.066          300.04079      0.0060443993   0.0047635095   7.9723675      14136.48      -1567635.2     -26610.585    
 34                  3400   0.068          299.82329      0.0082864325   0.011919048    8.1886881      14126.232     -1567191.8     -27362.978    
 35                  3500   0.07           299.23637     -0.0051948155  -0.016055551    8.3937881      14098.579     -1566721.5     -27908.459    
 36                  3600   0.072          299.97532      0.014280115    0.0065354183   8.6208944      14133.395     -1566308       -28805.7      
 37                  3700   0.074          299.72081     -0.025732261   -0.029295729    8.8256393      14121.404     -1565832.9     -29235.371    
 38                  3800   0.076          299.64868      0.019023223    0.024876911    9.0661118      14118.006     -1565355.5     -30366.707    
 39                  3900   0.078          299.14109      0.0056448044   0.0010193063   9.2679989      14094.09      -1564846       -30915.543    
 40                  4000   0.08           299.84587      0.025644992    0.03211951     9.5152571      14127.296     -1564386.4     -31910.072    
 41                  4100   0.082          299.76635     -0.0051318995  -0.0081897979   9.7154097      14123.55      -1563876.8     -32340.293    
 42                  4200   0.084          299.67714      0.0079924482   0.0063416855   9.9358441      14119.347     -1563357.4     -33167.261    
 43                  4300   0.086          299.7961      -0.000223859    0.00053412191  10.162122      14124.951     -1562836.8     -33874.773    
 44                  4400   0.088          300.11618     -0.0034065263  -0.0059275103   10.382954      14140.032     -1562317.4     -34578.734    
 45                  4500   0.09           299.41373     -0.026297444   -0.026835865    10.596291      14106.936     -1561733.9     -35143.858    
 46                  4600   0.092          298.7594      -0.0031498065   0.00041662653  10.824986      14076.107     -1561145.4     -36074.176    
 47                  4700   0.094          299.8005       0.022512088    0.021854588    11.071951      14125.159     -1560628.6     -37054.393    
 48                  4800   0.096          299.64801     -0.012610967   -0.0087732047   11.286331      14117.974     -1560039.2     -37549.823    
 49                  4900   0.098          299.35551     -0.014131222   -0.01857548     11.507564      14104.193     -1559434.7     -38249.525    
 50                  5000   0.1            299.54207     -0.0012144314   0.0035358222   11.738742      14112.983     -1558843.9     -39136.878    
 51                  5100   0.102          299.70593     -0.010705529   -0.011917298    11.967603      14120.703     -1558242.9     -39816.599    
 52                  5200   0.104          299.44973      0.017062017    0.011906253    12.212043      14108.632     -1557606.7     -40803.372    
 53                  5300   0.106          300.06753     -0.00015860503 -0.0051825986   12.436454      14137.74      -1557003.6     -41437.041    
 54                  5400   0.108          299.48354     -0.0068430114   0.0019267284   12.674987      14110.225     -1556329.8     -42233.57     
 55                  5500   0.11           299.49741     -0.0079876053  -0.010312883    12.914325      14110.878     -1555674       -42986.747    
 56                  5600   0.112          299.42534      0.0036992677   0.0099830787   13.147388      14107.483     -1555000.8     -43870.235    
 57                  5700   0.114          299.20313     -0.0036917647  -0.0043875761   13.38051       14097.013     -1554309.2     -44574.768    
 58                  5800   0.116          299.33719     -0.01403369    -0.0084612978   13.620511      14103.33      -1553624.2     -45326.721    
 59                  5900   0.118          299.39257     -0.015865053   -0.0085697537   13.862208      14105.939     -1552923.1     -46125.91     
 60                  6000   0.12           299.2301       0.021702305    0.021194774    14.104428      14098.284     -1552200       -47157.751    
 61                  6100   0.122          299.57791     -0.0079126176  -0.0058201676   14.333171      14114.671     -1551491.2     -47731.459    
 62                  6200   0.124          299.4231       0.0057511907   0.0012290157   14.575288      14107.377     -1550744.6     -48607.561    
 63                  6300   0.126          300.09138     -0.019590017   -0.026707977    14.815522      14138.863     -1550027.6     -49230.747    
 64                  6400   0.128          299.22419     -0.0038061861  -0.0053141381   15.061762      14098.006     -1549223.2     -50175.473    
 65                  6500   0.13           299.45162      0.0053535387   0.00055568784  15.293197      14108.721     -1548459.6     -50997.021    
 66                  6600   0.132          301.00072     -0.015770844   -0.017043009    15.454981      14181.707     -1547763       -51407.225    
 67                  6700   0.134          302.49749      0.020017439    0.013428019    15.571368      14252.228     -1547112.5     -52016.044    
 68                  6800   0.136          306.49769     -0.011598445   -0.016785058    15.548948      14440.698     -1546633.2     -51735.215    
 69                  6900   0.138          317.13311      0.011595479    0.0088790076   15.036374      14941.788     -1546552.2     -50189.495    
 70                  7000   0.14           345.51958     -0.0083994095   0.011598382    13.359638      16279.222     -1547528.9     -44542.788    
 71                  7100   0.142          393.34739     -0.0053986548   0.00046071585  10.127237      18532.639     -1549881.5     -33740.997    
 72                  7200   0.144          436.77356      0.0097981648   0.021154657    6.6577036      20578.671     -1552628.8     -22295.522    
 73                  7300   0.146          453.71296     -0.010332587    0.0060879468   4.1869577      21376.774     -1554569       -13942.377    
 74                  7400   0.148          456.2632       0.004622168   -0.012904767    3.3512838      21496.929     -1555978       -11143.337    
 75                  7500   0.15           451.83748      0.020934799    0.0068796414   3.0388818      21288.41      -1557074.4     -10222.321    
 76                  7600   0.152          443.64419     -0.013775736   -0.025144368    2.8812349      20902.382     -1557939.1     -9474.3828    
 77                  7700   0.154          435.81811     -0.015367463   -0.013133262    2.7912692      20533.655     -1558752.3     -9209.2283    
 78                  7800   0.156          429.12343     -0.030267549   -0.013025625    2.6615742      20218.234     -1559565.2     -8727.6036    
 79                  7900   0.158          420.63047     -0.0071765612   0.02444834     2.6549866      19818.086     -1560229.6     -8907.5279    
 80                  8000   0.16           412.24873      0.035549385    0.031891115    2.6020209      19423.179     -1560827.3     -8898.2047    
 81                  8100   0.162          404.93406     -0.010679787   -0.014022545    2.6091451      19078.547     -1561406.4     -8614.8091    
 82                  8200   0.164          396.60953     -0.0017074483  -0.013633328    2.6124511      18686.335     -1561866.3     -8657.0344    
 83                  8300   0.166          390.22967      0.0027339813   0.013083857    2.6962831      18385.746     -1562354.5     -9040.3363    
 84                  8400   0.168          383.60889     -0.014240339    0.0056306948   2.713841       18073.807     -1562769.4     -9017.4378    
 85                  8500   0.17           377.34006      0.0019147632   0.015622674    2.7253386      17778.45      -1563148.5     -9142.92      
 86                  8600   0.172          371.04367     -0.012192366   -0.0015136765   2.6576949      17481.794     -1563471.8     -8813.2963    
 87                  8700   0.174          366.07971      0.0042890494  -0.016893649    2.6761469      17247.917     -1563818.6     -8878.4743    
 88                  8800   0.176          360.61381     -0.015877957    0.0017907842   2.7450977      16990.389     -1564089.2     -9103.3683    
 89                  8900   0.178          356.3439      -0.014741072   -0.0022939648   2.7436838      16789.212     -1564375.6     -9088.8292    
 90                  9000   0.18           351.61617      0.0051962024   0.0065194492   2.7850221      16566.464     -1564598.2     -9322.4591    
 91                  9100   0.182          348.36873      0.0067258188   0.036766258    2.7919642      16413.46      -1564856.4     -9451.5208    
 92                  9200   0.184          345.02878      0.0022312219   0.0014713645   2.7422426      16256.098     -1565082.3     -9153.1506    
 93                  9300   0.186          342.46202     -0.014103524   -0.027245977    2.7151403      16135.164     -1565321.1     -8912.6361    
 94                  9400   0.188          337.97852      0.0077972691   0.0086179733   2.7982004      15923.924     -1565438.1     -9382.052     
 95                  9500   0.19           335.576        0.027881983    0.010066589    2.8740237      15810.728     -1565622.8     -9706.5742    
 96                  9600   0.192          332.26416     -0.04168026    -0.022344833    2.8851548      15654.69      -1565734.2     -9403.7656    
 97                  9700   0.194          330.10095     -0.0033724342  -0.013238716    2.8833366      15552.77      -1565874.6     -9555.7514    
 98                  9800   0.196          327.99468      0.011135729    0.010552419    2.9050026      15453.533     -1565995.6     -9755.6357    
 99                  9900   0.198          326.30571     -0.024119339   -0.013874047    2.8402332      15373.956     -1566116.2     -9340.7992    
 100                10000   0.2            324.22675      0.0029405073  -0.00030680622  2.8786818      15276.006     -1566204.8     -9604.385     
Loop time of 7787.74 on 16 procs for 10000 steps with 364500 atoms

Performance: 1.109 ns/day, 21.633 hours/ns, 1.284 timesteps/s, 468.043 katom-step/s
90.6% CPU use with 4 MPI tasks x 4 OpenMP threads

MPI task timing breakdown:
Section |  min time  |  avg time  |  max time  |%varavg| %total
---------------------------------------------------------------
Pair    | 6636       | 6651.8     | 6659.3     |  11.4 | 85.41
Neigh   | 360.35     | 363.6      | 364.88     |   9.9 |  4.67
Comm    | 388.59     | 396.92     | 415.68     |  55.0 |  5.10
Output  | 7.2158     | 7.7164     | 8.2242     |  13.4 |  0.10
Modify  | 338.5      | 339.08     | 339.54     |   2.2 |  4.35
Other   |            | 28.6       |            |       |  0.37

Nlocal:          91125 ave       91261 max       90895 min
Histogram: 1 0 0 0 0 1 0 0 0 2
Nghost:        43666.5 ave       43711 max       43623 min
Histogram: 1 1 0 0 0 0 0 1 0 1
Neighs:     5.6984e+06 ave 5.72936e+06 max 5.65796e+06 min
Histogram: 1 0 0 0 0 1 0 1 0 1

Total # of neighbors = 22793609
Ave neighs/atom = 62.533907
Neighbor list builds = 1994
Dangerous builds = 0

# write output data
write_data NiCoCrFe_5KeV_Strained.lmp
System init for write_data ...
No /omp style for force computation currently active

# end of simulation
print "Tensile test simulation completed."
Tensile test simulation completed.


Total wall time: 2:33:15
