LAMMPS (2 Aug 2023 - Update 2)
OMP_NUM_THREADS environment is not set. Defaulting to 1 thread. (src/comm.cpp:98)
  using 1 OpenMP thread(s) per MPI task
Loaded 1 plugins from C:\Users\Ratish Panda\AppData\Local\LAMMPS 64-bit 2Aug2023-MSMPI with Python\plugins
# Tensile Test Simulation in LAMMPS

# Initialize
units metal
boundary p p p
atom_style atomic

# Specify the number of OpenMP threads
package omp 4
set 4 OpenMP thread(s) per MPI task
using multi-threaded neighbor list subroutines

# Read data file (output from previous steps)
read_data Ni_pka_5keV_final.lmp
Reading data file ...
  orthogonal box = (-0.013463769 -0.013463769 -0.013463769) to (158.41346 158.41346 158.41346)
  1 by 2 by 2 MPI processor grid
  reading atoms ...
  364500 atoms
  reading velocities ...
  364500 velocities
  read_data CPU = 4.006 seconds

# Define potential (EAM potential for Nickel)
pair_style eam/alloy
pair_coeff * * FeNiCrCoCu-with-ZBL.eam.alloy Ni

neighbor	 1 bin
neigh_modify every 1 delay 0 check yes

# Define relaxation parameters
reset_timestep 0
timestep 0.01
fix 1 all npt temp 300 300 0.8 iso 0 0 1 drag 1
thermo 100
thermo_style custom time step temp press etotal

# Relaxation for 20 ps
run 2000
No /omp style for force computation currently active
Neighbor list info ...
  update: every = 1 steps, delay = 0 steps, check = yes
  max neighbors/atom: 2000, page size: 100000
  master list distance cutoff = 6.80375
  ghost atom cutoff = 6.80375
  binsize = 3.401875, bins = 47 47 47
  1 neighbor lists, perpetual/occasional/extra = 1 0 0
  (1) pair eam/alloy, perpetual
      attributes: half, newton on, omp
      pair build: half/bin/atomonly/newton/omp
      stencil: half/bin/3d
      bin: standard
Per MPI rank memory allocation (min/avg/max) = 65.7 | 65.7 | 65.7 Mbytes
     Time         Step          Temp          Press          TotEng    
 0                      0   351.94415      7379.2324     -1602892      
 1                    100   339.63834     -73.338631     -1603475.9    
 2                    200   329.52223      7.0351208     -1603988.1    
 3                    300   320.9508      -7.5853824     -1604398.9    
 4                    400   314.48726     -19.946458     -1604723.2    
 5                    500   309.84653     -3.8680819     -1604972.7    
 6                    600   305.97782     -12.455798     -1605159.7    
 7                    700   303.58004      11.830061     -1605294.7    
 8                    800   302.02773     -4.1733531     -1605387.6    
 9                    900   301.23362     -5.6412611     -1605443.3    
 10                  1000   300.04832      2.9607625     -1605474.7    
 11                  1100   299.50903      19.775919     -1605488.3    
 12                  1200   300.22575     -9.9563387     -1605485.8    
 13                  1300   299.78566      7.9940884     -1605484.4    
 14                  1400   299.66297      0.59260498    -1605485.7    
 15                  1500   300.43229     -14.189743     -1605483.7    
 16                  1600   300.99754      8.4540819     -1605481.4    
 17                  1700   300.02261      7.5762255     -1605484      
 18                  1800   300.22038      1.0405089     -1605485.1    
 19                  1900   300.18147     -4.2596886     -1605483.6    
 20                  2000   299.88254     -14.246089     -1605484.6    
Loop time of 594.81 on 16 procs for 2000 steps with 364500 atoms

Performance: 2.905 ns/day, 8.261 hours/ns, 3.362 timesteps/s, 1.226 Matom-step/s
101.7% CPU use with 4 MPI tasks x 4 OpenMP threads

MPI task timing breakdown:
Section |  min time  |  avg time  |  max time  |%varavg| %total
---------------------------------------------------------------
Pair    | 499.37     | 500.7      | 502.58     |   6.0 | 84.18
Neigh   | 29.429     | 29.505     | 29.615     |   1.4 |  4.96
Comm    | 19.738     | 21.79      | 23.153     |  30.7 |  3.66
Output  | 0.017285   | 0.017475   | 0.01763    |   0.1 |  0.00
Modify  | 39.449     | 39.499     | 39.554     |   0.7 |  6.64
Other   |            | 3.3        |            |       |  0.55

Nlocal:          91125 ave       91126 max       91124 min
Histogram: 1 0 0 0 0 2 0 0 0 1
Nghost:        46513.5 ave       46517 max       46508 min
Histogram: 1 0 0 0 0 1 0 0 1 1
Neighs:    6.10473e+06 ave 6.10556e+06 max 6.10371e+06 min
Histogram: 1 0 0 1 0 0 0 0 1 1

Total # of neighbors = 24418932
Ave neighs/atom = 66.992955
Neighbor list builds = 225
Dangerous builds = 0

# write output data
write_data Ni_5KeV_Relaxed.lmp
System init for write_data ...
No /omp style for force computation currently active

#--------------------------
# Store final cell length for strain calculations
variable tmp equal "lx"
variable L0 equal ${tmp}
variable L0 equal 158.60014969226
print "Initial Length, L0: ${L0}"
Initial Length, L0: 158.60014969226

reset_timestep 0

fix 1 all npt temp 300 300 1 x 0 0 1 y 0 0 1 drag 1
variable srate equal 2.0e9
variable srate1 equal "v_srate / 1.0e12" # adjusting strain rate unit from per second to per picosecond
fix 2 all deform 1 z erate ${srate1} units box remap x
fix 2 all deform 1 z erate 0.002 units box remap x

# Output strain and stress info to file
# for units metal, pressure is in [bars] = 100 [kPa] = 1/10000 [GPa]
# p2, p3, p4 are in GPa
variable strain equal "(lz - v_L0)/v_L0"
variable p1 equal "v_strain"
variable p2 equal "-pxx/10000"
variable p3 equal "-pyy/10000"
variable p4 equal "-pzz/10000"
fix def1 all print 10 "${p1} ${p2} ${p3} ${p4}" file Ni_Tensile_5KeV.def1.txt screen no

# dumping data
dump 1 all custom 1000 dump.Ni_Tensile_5KeV_*.dump id type x y z
dump_modify 1 sort id

# Display thermo
thermo 100
thermo_style custom time step v_strain temp v_p2 v_p3 v_p4 ke pe press

# run tensile test for 100 ps
run 10000
No /omp style for force computation currently active
Per MPI rank memory allocation (min/avg/max) = 65.71 | 65.81 | 66.1 Mbytes
     Time         Step        v_strain         Temp           v_p2           v_p3           v_p4          KinEng         PotEng         Press     
 0                      0  -7.1681419e-16  299.88254      0.099336192   -0.38120733     0.28614497     14129.024     -1619613.6     -14.246089    
 1                    100   0.002          299.57612     -0.00012135382  0.012258823    0.7141537      14114.587     -1619569.4     -2420.9706    
 2                    200   0.004          300.46535      0.00088971055  0.0012970111   1.0575784      14156.483     -1619554.9     -3532.5503    
 3                    300   0.006          301.3336       0.0058170492  -0.0030842506   1.4212669      14197.391     -1619540.9     -4746.6658    
 4                    400   0.008          300.53208     -0.00037840714  0.0014563308   1.7970138      14159.627     -1619439.7     -5993.6391    
 5                    500   0.01           300.22361     -0.0046220333   0.0047661781   2.1887475      14145.094     -1619340.3     -7296.3056    
 6                    600   0.012          300.53581      0.0031204642   0.00026932719  2.590232       14159.803     -1619248.5     -8645.4059    
 7                    700   0.014          300.1284      -0.0050386078   0.0037892613   2.9947348      14140.607     -1619104.5     -9978.2848    
 8                    800   0.016          300.16329      0.013331554   -0.0098004216   3.4182434      14142.251     -1618959.9     -11405.915    
 9                    900   0.018          299.8045      -0.0037364767   0.0048545471   3.8358158      14125.347     -1618775.7     -12789.78     
 10                  1000   0.02           300.29073     -0.0020544207   0.0019073923   4.2550941      14148.256     -1618610.8     -14183.157    
 11                  1100   0.022          300.47959      0.0031909514  -0.0013582257   4.6797527      14157.154     -1618410.6     -15605.285    
 12                  1200   0.024          300.24238      0.0032206432  -0.0023650587   5.0980605      14145.978     -1618170.1     -16996.387    
 13                  1300   0.026          300.31881      0.010100429   -0.0043113482   5.5151164      14149.579     -1617924.5     -18403.018    
 14                  1400   0.028          299.96412      0.0062563891  -0.011294569    5.9145815      14132.868     -1617637.7     -19698.478    
 15                  1500   0.03           300.24408      0.0013803029   0.0017513579   6.3042903      14146.058     -1617361.4     -21024.74     
 16                  1600   0.032          299.9967       0.00017867623  0.0028997585   6.6796876      14134.403     -1617041       -22275.887    
 17                  1700   0.034          299.8962       0.0017608454   0.0021201931   7.0457602      14129.668     -1616708.9     -23498.804    
 18                  1800   0.036          300.338        0.0026165627   0.0026819147   7.3909976      14150.483     -1616384.2     -24654.32     
 19                  1900   0.038          300.00983      0.0070837811  -0.0063899142   7.7158926      14135.021     -1616006.3     -25721.955    
 20                  2000   0.04           299.90344      0.0062269784  -0.0019217678   8.0019558      14130.008     -1615624.2     -26687.537    
 21                  2100   0.042          299.88625     -0.00076423033 -0.0031074052   8.256854       14129.199     -1615230.3     -27509.941    
 22                  2200   0.044          299.85239      0.0041272357  -0.0032145766   8.4804059      14127.604     -1614825.4     -28271.062    
 23                  2300   0.046          300.1228       0.0051861851  -0.0047600432   8.6735563      14140.344     -1614425       -28913.275    
 24                  2400   0.048          299.9652      -0.0016480356   0.0021952254   8.885021       14132.919     -1613999.1     -29618.561    
 25                  2500   0.05           300.23489     -0.0021201086  -0.00088513543  9.1062998      14145.625     -1613590.3     -30344.315    
 26                  2600   0.052          300.09956      0.0014339082  -0.0038119847   9.3461923      14139.249     -1613150.6     -31146.048    
 27                  2700   0.054          300.43182     -0.0054299643   0.0068203414   9.5818668      14154.903     -1612721.7     -31944.191    
 28                  2800   0.056          300.11133      0.0059510976   0.0012345182   9.8403277      14139.804     -1612250.9     -32825.044    
 29                  2900   0.058          299.94204      0.001479928   -0.0022513223   10.090365      14131.827     -1611774.7     -33631.979    
 30                  3000   0.06           300.06857      0.0011766451  -0.0021761573   10.345737      14137.789     -1611304.5     -34482.459    
 31                  3100   0.062          300.25389     -0.0011467591  -0.0015432089   10.601374      14146.52      -1610823.7     -35328.946    
 32                  3200   0.064          300.16436     -0.00083102369  0.0012729471   10.859927      14142.302     -1610317.2     -36201.228    
 33                  3300   0.066          300.09862      0.0066343185  -0.0021455489   11.131412      14139.204     -1609800.7     -37119.669    
 34                  3400   0.068          300.33423     -2.4810333e-05  0.0022083844   11.387116      14150.305     -1609285.4     -37964.332    
 35                  3500   0.07           299.99505     -0.0040877027   0.0024121141   11.646853      14134.325     -1608732.5     -38817.257    
 36                  3600   0.072          300.0924      -0.0066136569   0.009110145    11.912065      14138.911     -1608186.3     -39715.205    
 37                  3700   0.074          299.97402      0.0075504601   0.0024175163   12.18028       14133.334     -1607618.6     -40634.16     
 38                  3800   0.076          300.0329      -0.00082431018  0.0063097138   12.440771      14136.108     -1607048.4     -41487.522    
 39                  3900   0.078          300.37328      0.0012386938  -0.0046816991   12.703122      14152.145     -1606477.9     -42332.264    
 40                  4000   0.08           300.19821     -0.0013538137   0.0038136002   12.963515      14143.897     -1605872.3     -43219.916    
 41                  4100   0.082          300.19276      0.00055811639 -0.005681697    13.225345      14143.64      -1605260.6     -44067.404    
 42                  4200   0.084          300.16874      0.0026266585  -0.00026203531  13.483893      14142.508     -1604638.1     -44954.192    
 43                  4300   0.086          300.20723     -0.0023348198   0.003022995    13.741428      14144.322     -1604004.8     -45807.054    
 44                  4400   0.088          300.0337       0.001177591   -0.003580064    14.001015      14136.146     -1603350       -46662.041    
 45                  4500   0.09           300.06578     -0.00012422328  0.0017238387   14.259593      14137.657     -1602693       -47537.309    
 46                  4600   0.092          300.02912     -0.00055537948  0.0029187363   14.517502      14135.93      -1602021.1     -48399.553    
 47                  4700   0.094          300.33844      0.0039833955  -0.0038047604   14.771964      14150.504     -1601353.9     -49240.476    
 48                  4800   0.096          299.99435      0.00026358097 -0.0025726878   15.026142      14134.292     -1600643.4     -50079.443    
 49                  4900   0.098          300.33727     -0.00077064987  0.0027897145   15.280476      14150.449     -1599955.2     -50941.649    
 50                  5000   0.1            300.18846      0.0026503752  -0.0037614659   15.53624       14143.438     -1599230.7     -51783.763    
 51                  5100   0.102          299.95441     -0.0028149649   0.0055333877   15.784661      14132.41      -1598492.4     -52624.597    
 52                  5200   0.104          300.09085      0.0040428289  -0.00061161078  16.041698      14138.838     -1597757.6     -53483.764    
 53                  5300   0.106          300.27475     -0.0013031419   0.0032397752   16.289156      14147.503     -1597015.9     -54303.643    
 54                  5400   0.108          300.36262     -0.0024581156  -0.0027343123   16.537631      14151.643     -1596256.4     -55108.13     
 55                  5500   0.11           299.92389      0.0036749193   0.00078315599  16.783046      14130.972     -1595462.7     -55958.348    
 56                  5600   0.112          300.20064     -0.0033261662   0.0012868913   17.0211        14144.011     -1594690.6     -56730.203    
 57                  5700   0.114          300.01347      0.00036752277 -0.002809244    17.240755      14135.193     -1593887.5     -57461.045    
 58                  5800   0.116          303.29805      0.00067316449  0.0022837124   17.304053      14289.946     -1593267.8     -57690.032    
 59                  5900   0.118          318.27563      0.0018807254  -0.0013510574   16.808348      14995.618     -1593298.1     -56029.591    
 60                  6000   0.12           358.28385      0.011603179    0.0031339306   15.286393      16880.613     -1594815.7     -51003.766    
 61                  6100   0.122          404.85495      0.011789503   -0.023895671    12.842584      19074.819     -1597125.2     -42768.26     
 62                  6200   0.124          439.12074      0.020710536   -0.013697905    9.5608174      20689.259     -1599367.6     -31892.767    
 63                  6300   0.126          452.87055      0.020533352   -0.014636882    6.7728599      21337.083     -1601032.6     -22595.854    
 64                  6400   0.128          447.24466      0.02018342    -0.001271371    4.9018409      21072.019     -1601938.8     -16402.51     
 65                  6500   0.13           440.31688      0.013138627   -0.014107464    3.9804823      20745.615     -1602780       -13265.045    
 66                  6600   0.132          428.15849      0.007339027   -0.015694709    3.5619236      20172.77      -1603302.5     -11845.226    
 67                  6700   0.134          413.57879     -0.0040493425   0.00047079559  3.4113378      19485.845     -1603613.5     -11359.197    
 68                  6800   0.136          402.57335      0.0051774666   0.0023943332   3.3529007      18967.322     -1603987.2     -11201.575    
 69                  6900   0.138          391.10131     -0.005264776   -0.0037886785   3.2905343      18426.814     -1604238.6     -10938.269    
 70                  7000   0.14           382.39318      0.00096209197  0.01928169     3.1476943      18016.529     -1604538.1     -10559.794    
 71                  7100   0.142          373.2951      -0.0075009404   0.010247305    3.1457891      17587.871     -1604748.7     -10495.118    
 72                  7200   0.144          364.83703     -0.012776124   -0.0084134564   3.1950922      17189.367     -1604909       -10579.675    
 73                  7300   0.146          357.14219      0.0051468089   0.0080621428   3.2023683      16826.823     -1605037.5     -10718.591    
 74                  7400   0.148          351.02356     -0.00078388309  0.0051214057   3.0927389      16538.543     -1605184.4     -10323.588    
 75                  7500   0.15           345.99576     -0.012909685    3.6781607e-05  3.0061285      16301.657     -1605340.5     -9977.5185    
 76                  7600   0.152          341.46887      0.0082245518  -0.00083914528  3.0604274      16088.372     -1605480       -10226.043    
 77                  7700   0.154          337.34394     -0.0040436201  -0.001019944    3.0706253      15894.025     -1605596       -10218.539    
 78                  7800   0.156          334.18903      0.0079880771   0.0065421086   2.9760801      15745.381     -1605731.2     -9968.7009    
 79                  7900   0.158          330.46735     -0.013181526   -0.004651742    3.0479676      15570.033     -1605808.5     -10100.448    
 80                  8000   0.16           327.26537      0.010580802    0.014254937    3.1298942      15419.171     -1605875.4     -10515.767    
 81                  8100   0.162          324.1058       0.0063865688   0.0155991      3.3073703      15270.308     -1605907       -11097.853    
 82                  8200   0.164          322.37638      0.00057741355 -0.0041718877   3.2968209      15188.826     -1605979.9     -10977.421    
 83                  8300   0.166          320.57948      0.0065711854   0.0020029351   3.3152304      15104.164     -1606031.4     -11079.348    
 84                  8400   0.168          318.90481      0.0042680492   0.011395279    3.4016589      15025.262     -1606071.3     -11391.074    
 85                  8500   0.17           316.63239      0.0048238042  -0.005693535    3.5217046      14918.197     -1606057.2     -11736.116    
 86                  8600   0.172          314.97665      0.0019153071  -0.0014439146   3.6554392      14840.186     -1606049.2     -12186.369    
 87                  8700   0.174          313.49712      0.0022779698   0.0034435434   3.7248466      14770.477     -1606029.3     -12435.227    
 88                  8800   0.176          312.24728      0.00841257     0.00090644823  3.8475785      14711.591     -1605999.9     -12856.325    
 89                  8900   0.178          310.88544      0.0066894595   0.011572467    3.9594463      14647.428     -1605947.1     -13259.027    
 90                  9000   0.18           309.89189     -0.0098646426  -0.0070142374   4.0449122      14600.616     -1605889.5     -13426.778    
 91                  9100   0.182          309.95777      0.0088921046   0.01340744     4.0796102      14603.72      -1605871.1     -13673.032    
 92                  9200   0.184          309.46151      0.00044137689  0.00087791572  4.0092702      14580.339     -1605828.8     -13368.632    
 93                  9300   0.186          309.43668     -0.0025719335   0.0018673103   4.0506683      14579.169     -1605808.9     -13499.879    
 94                  9400   0.188          308.21278      0.0076522244   0.00063794873  4.137463       14521.505     -1605721.3     -13819.177    
 95                  9500   0.19           307.25733     -0.0095765023   0.0044900199   4.2532078      14476.489     -1605631.2     -14160.404    
 96                  9600   0.192          306.2466      -0.005039526    0.0048441587   4.4366516      14428.868     -1605519.4     -14788.187    
 97                  9700   0.194          305.82828      0.0004786808  -0.0061263516   4.5402685      14409.159     -1605417.3     -15115.403    
 98                  9800   0.196          304.97666     -0.0022305494  -0.0048946335   4.5703417      14369.034     -1605284.4     -15210.722    
 99                  9900   0.198          304.84195      0.0013018991  -0.010879217    4.6500815      14362.687     -1605178.9     -15468.347    
 100                10000   0.2            304.31638     -0.0017788138   0.005115497    4.7905292      14337.925     -1605040.9     -15979.553    
Loop time of 3443.43 on 16 procs for 10000 steps with 364500 atoms

Performance: 2.509 ns/day, 9.565 hours/ns, 2.904 timesteps/s, 1.059 Matom-step/s
104.8% CPU use with 4 MPI tasks x 4 OpenMP threads

MPI task timing breakdown:
Section |  min time  |  avg time  |  max time  |%varavg| %total
---------------------------------------------------------------
Pair    | 2813       | 2818.8     | 2822.9     |   6.8 | 81.86
Neigh   | 251.24     | 252.11     | 253.25     |   4.9 |  7.32
Comm    | 110.91     | 116.28     | 121.87     |  36.4 |  3.38
Output  | 2.9193     | 3.1514     | 3.3815     |   9.7 |  0.09
Modify  | 235.61     | 235.84     | 236        |   1.0 |  6.85
Other   |            | 17.24      |            |       |  0.50

Nlocal:          91125 ave       91954 max       90554 min
Histogram: 1 0 1 0 1 0 0 0 0 1
Nghost:        43875.5 ave       44064 max       43757 min
Histogram: 2 0 0 0 1 0 0 0 0 1
Neighs:    5.95241e+06 ave  5.9826e+06 max 5.90694e+06 min
Histogram: 1 0 0 0 1 0 0 0 0 2

Total # of neighbors = 23809628
Ave neighs/atom = 65.321339
Neighbor list builds = 1613
Dangerous builds = 0

# write output data
write_data Ni_5KeV_Strained.lmp
System init for write_data ...
No /omp style for force computation currently active

# end of simulation
print "Tensile test simulation completed."
Tensile test simulation completed.


Total wall time: 1:07:25
