LAMMPS (2 Aug 2023 - Update 2)
OMP_NUM_THREADS environment is not set. Defaulting to 1 thread. (src/comm.cpp:98)
  using 1 OpenMP thread(s) per MPI task
Loaded 1 plugins from C:\Users\Ratish Panda\AppData\Local\LAMMPS 64-bit 2Aug2023-MSMPI with Python\plugins
# Tensile Test Simulation in LAMMPS

# Initialize
units metal
boundary p p p
atom_style atomic

# Specify the number of OpenMP threads
package omp 4
set 4 OpenMP thread(s) per MPI task
using multi-threaded neighbor list subroutines

# Read data file (output from previous steps)
read_data NiCoCrFe_relaxed.lmp
Reading data file ...
  orthogonal box = (0.80381162 0.80381162 0.80381162) to (161.64619 161.64619 161.64619)
  2 by 1 by 2 MPI processor grid
  reading atoms ...
  364500 atoms
  reading velocities ...
  364500 velocities
  read_data CPU = 4.146 seconds

# Define potential (EAM potential for Nickel)
pair_style eam/alloy
pair_coeff * * FeNiCrCoCu-heafixed.setfl Ni Co Cr Fe

neighbor	 1 bin
neigh_modify every 1 delay 0 check yes

#--------------------------
# Store final cell length for strain calculations
variable tmp equal "lx"
variable L0 equal ${tmp}
variable L0 equal 160.842376761277
print "Initial Length, L0: ${L0}"
Initial Length, L0: 160.842376761277

reset_timestep 0
timestep 0.01

fix 1 all npt temp 300 300 1 x 0 0 1 y 0 0 1 drag 1
variable srate equal 2.0e9
variable srate1 equal "v_srate / 1.0e12" # adjusting strain rate unit from per second to per picosecond
fix 2 all deform 1 z erate ${srate1} units box remap x
fix 2 all deform 1 z erate 0.002 units box remap x

# Output strain and stress info to file
# for units metal, pressure is in [bars] = 100 [kPa] = 1/10000 [GPa]
# p2, p3, p4 are in GPa
variable strain equal "(lz - v_L0)/v_L0"
variable p1 equal "v_strain"
variable p2 equal "-pxx/10000"
variable p3 equal "-pyy/10000"
variable p4 equal "-pzz/10000"
fix def1 all print 10 "${p1} ${p2} ${p3} ${p4}" file NiCoCrFe_Tensile_Unirradiated.def1.txt screen no

# dumping data
dump 1 all custom 1000 dump.NiCoCrFe_Tensile_Unirradiated_*.dump id type x y z
dump_modify 1 sort id

# Display thermo
thermo 100
thermo_style custom time step v_strain temp v_p2 v_p3 v_p4 ke pe press

# run tensile test for 100 ps
run 10000
No /omp style for force computation currently active
Neighbor list info ...
  update: every = 1 steps, delay = 0 steps, check = yes
  max neighbors/atom: 2000, page size: 100000
  master list distance cutoff = 6.80375
  ghost atom cutoff = 6.80375
  binsize = 3.401875, bins = 48 48 48
  1 neighbor lists, perpetual/occasional/extra = 1 0 0
  (1) pair eam/alloy, perpetual
      attributes: half, newton on, omp
      pair build: half/bin/atomonly/newton/omp
      stencil: half/bin/3d
      bin: standard
Per MPI rank memory allocation (min/avg/max) = 64.27 | 64.65 | 65.03 Mbytes
     Time         Step        v_strain         Temp           v_p2           v_p3           v_p4          KinEng         PotEng         Press     
 0                      0   3.0039911e-15  300.1357       3.1031101      3.1116984      3.1084887      14140.952     -1574038.3     -31077.657    
 1                    100   0.002          309.08248     -0.001293895    0.0040156235   0.95918967     14562.481     -1575123.8     -3206.3713    
 2                    200   0.004          307.46221     -0.0019816292  -0.0081078248   1.2244174      14486.141     -1575121.9     -4047.7599    
 3                    300   0.006          305.81989     -0.0068037142   0.0015690991   1.4875623      14408.763     -1575085       -4941.0923    
 4                    400   0.008          304.32405      0.011550437    0.0021403413   1.7670124      14338.286     -1575020.3     -5935.6772    
 5                    500   0.01           303.74174      0.019034423    0.010861522    2.0511862      14310.851     -1574969.7     -6936.9405    
 6                    600   0.012          301.93707     -0.00074201309  0.0088776907   2.294769       14225.823     -1574826.5     -7676.349     
 7                    700   0.014          301.37789      0.0041277901  -0.00022132239  2.5601281      14199.478     -1574715.8     -8546.7818    
 8                    800   0.016          300.74722     -0.00093180235 -0.0085949775   2.8226062      14169.763     -1574573.2     -9376.9315    
 9                    900   0.018          300.02164     -0.0055683808  -0.00029964184  3.0763047      14135.578     -1574397.7     -10234.789    
 10                  1000   0.02           299.89326      0.0029486621   0.0034143553   3.3395224      14129.529     -1574223.9     -11152.952    
 11                  1100   0.022          299.58035      0.0058072347  -0.0095833254   3.5809221      14114.786     -1574015.2     -11923.82     
 12                  1200   0.024          299.22303      0.00092193526  0.0041452019   3.8286066      14097.951     -1573778.5     -12778.913    
 13                  1300   0.026          299.34262      0.013453007    0.0072236747   4.0825645      14103.586     -1573547       -13677.471    
 14                  1400   0.028          299.70922      0.00072309496 -0.0007886489   4.3185331      14120.858     -1573312.3     -14394.892    
 15                  1500   0.03           299.48552      0.013048684    0.008978135    4.5614951      14110.318     -1573037.2     -15278.406    
 16                  1600   0.032          300.04694     -0.00031734715  0.0052497583   4.7919744      14136.77      -1572788.7     -15989.689    
 17                  1700   0.034          299.99232     -0.0012396948  -0.0016773814   5.026203       14134.196     -1572499       -16744.286    
 18                  1800   0.036          299.32957      0.006947445    0.0055163627   5.2650299      14102.971     -1572168.4     -17591.646    
 19                  1900   0.038          299.87395      0.013486629    0.006016169    5.4907009      14128.619     -1571887.1     -18367.346    
 20                  2000   0.04           299.5925       0.011637713    0.0082631394   5.7255479      14115.358     -1571552.4     -19151.496    
 21                  2100   0.042          300.04429      0.0015497661   0.014204437    5.9518649      14136.645     -1571243.7     -19892.064    
 22                  2200   0.044          299.97743     -0.018803019   -0.018344238    6.1479203      14133.494     -1570897.4     -20369.244    
 23                  2300   0.046          299.73066      0.021868204    0.0329064      6.4029444      14121.868     -1570535.2     -21525.73     
 24                  2400   0.048          300.06433     -0.0074266661  -0.0016051176   6.5992622      14137.589     -1570187.9     -21967.435    
 25                  2500   0.05           299.68063      0.0025143032   0.0034499354   6.8311513      14119.511     -1569797.7     -22790.385    
 26                  2600   0.052          299.48366      0.0084561538   0.019102083    7.0646085      14110.23      -1569403.6     -23640.556    
 27                  2700   0.054          299.00699      0.010014421    0.013838801    7.2753914      14087.772     -1568986.4     -24330.815    
 28                  2800   0.056          299.6079      -0.0021956556   0.0073840188   7.4923539      14116.084     -1568611.6     -24991.808    
 29                  2900   0.058          299.6573       0.006716014    0.0088405515   7.7131202      14118.412     -1568201.5     -25762.256    
 30                  3000   0.06           299.72913      0.010609866    0.018128795    7.939023       14121.796     -1567781.2     -26559.205    
 31                  3100   0.062          299.40281     -0.0031644069   0.0046573614   8.143203       14106.421     -1567329.4     -27148.987    
 32                  3200   0.064          299.62885     -0.00803385    -0.014441707    8.365576       14117.071     -1566896.4     -27810.335    
 33                  3300   0.066          299.83161      0.0058637787   0.010173085    8.5859277      14126.624     -1566452.2     -28673.215    
 34                  3400   0.068          299.39824     -0.0079204033  -0.010138042    8.7985014      14106.206     -1565966.6     -29268.143    
 35                  3500   0.07           299.8789       0.013852466    0.0032532732   9.0281576      14128.853     -1565515.8     -30150.878    
 36                  3600   0.072          299.32724     -0.0038902087  -0.0070401661   9.2374506      14102.861     -1565001.1     -30755.068    
 37                  3700   0.074          299.86206      0.0048149407  -0.0030984098   9.464887       14128.059     -1564532.3     -31555.345    
 38                  3800   0.076          299.66242     -0.019862295   -0.010719534    9.674875       14118.653     -1564016.2     -32147.644    
 39                  3900   0.078          299.56039     -0.020026712   -0.026219845    9.9040417      14113.846     -1563493.3     -32859.317    
 40                  4000   0.08           299.23848     -0.012536379   -0.010728923    10.12788       14098.679     -1562950.1     -33682.051    
 41                  4100   0.082          299.50292     -0.012983712   -0.012499985    10.35626       14111.138     -1562425.7     -34435.922    
 42                  4200   0.084          299.16081     -0.016290705   -0.024323779    10.577584      14095.02      -1561857.6     -35123.233    
 43                  4300   0.086          299.92434      0.0053536237   0.006183528    10.815611      14130.993     -1561337.9     -36090.493    
 44                  4400   0.088          300.06167      0.024020844    0.016023155    11.044411      14137.464     -1560772.7     -36948.185    
 45                  4500   0.09           299.93611     -0.024683866   -0.014524934    11.258841      14131.548     -1560186.3     -37398.774    
 46                  4600   0.092          299.6585       0.019243256    0.018939214    11.50744       14118.468     -1559579.2     -38485.409    
 47                  4700   0.094          299.05172     -0.0070012362  -0.0028681433   11.721859      14089.88      -1558946.6     -39039.964    
 48                  4800   0.096          300.07964      0.0062731254   0.0046697647   11.956785      14138.31      -1558381.3     -39892.426    
 49                  4900   0.098          299.31359     -0.032389164   -0.037683376    12.175273      14102.218     -1557718.1     -40350.67     
 50                  5000   0.1            299.76242     -0.014636775   -0.011936944    12.418283      14123.364     -1557101.6     -41305.699    
 51                  5100   0.102          299.44571     -0.010497123   -0.010039658    12.660366      14108.443     -1556438.4     -42132.765    
 52                  5200   0.104          299.06367      0.012873619    0.0027587566   12.898793      14090.443     -1555759       -43048.085    
 53                  5300   0.106          299.24809      0.015964716    0.015911129    13.140909      14099.132     -1555096.8     -43909.284    
 54                  5400   0.108          299.50863     -0.0074345034  -0.0097012981   13.368919      14111.407     -1554425.6     -44505.944    
 55                  5500   0.11           299.46396      0.0083976332   0.0088774607   13.620493      14109.302     -1553728.5     -45459.226    
 56                  5600   0.112          299.42641      0.0054287481   0.0086218184   13.864899      14107.533     -1553017.4     -46263.166    
 57                  5700   0.114          299.05912      0.013096614    0.013610396    14.091341      14090.228     -1552282.2     -47060.16     
 58                  5800   0.116          298.67827      0.00047638377 -0.0037716956   14.330876      14072.285     -1551532.2     -47758.602    
 59                  5900   0.118          298.58868     -0.0057747942  -0.0051634669   14.5672        14068.064     -1550785.7     -48520.871    
 60                  6000   0.12           299.8263      -0.043152937   -0.035336277    14.819178      14126.374     -1550092.1     -49135.628    
 61                  6100   0.122          299.11864      0.015941479    0.011508882    15.076825      14093.032     -1549291.9     -50347.585    
 62                  6200   0.124          299.12044     -0.0057696991   0.0034715812   15.307777      14093.117     -1548513.9     -51018.263    
 63                  6300   0.126          298.96941     -0.0037235398   0.0080219183   15.543523      14086.002     -1547716.3     -51826.073    
 64                  6400   0.128          299.11806      0.0085188503   0.025836976    15.773367      14093.005     -1546921.4     -52692.41     
 65                  6500   0.13           298.65975     -0.0072321591   0.01997928     15.948986      14071.412     -1546087.7     -53205.776    
 66                  6600   0.132          299.14294     -0.018327158    0.029775274    16.057704      14094.178     -1545297.2     -53563.839    
 67                  6700   0.134          298.3005      -0.03308384     0.043792362    16.043594      14054.486     -1544439.4     -53514.342    
 68                  6800   0.136          297.32267     -0.073720838    0.096618339    15.721485      14008.415     -1543590.1     -52481.276    
 69                  6900   0.138          330.86993     -0.26502489     0.41585483     13.436381      15589.001     -1544752.6     -45290.703    
 70                  7000   0.14           397.47452     -0.13860617     0.30759101     7.9382106      18727.089     -1548546.3     -27023.985    
 71                  7100   0.142          434.88901      0.045769238   -0.0033061434   4.6153293      20489.88      -1551206.6     -15525.975    
 72                  7200   0.144          444.28332      0.033303222    0.025909367    3.742073       20932.495     -1552789.9     -12670.952    
 73                  7300   0.146          446.62661      0.014539599    0.0093663182   3.0872881      21042.899     -1554114.3     -10370.647    
 74                  7400   0.148          446.60349     -0.022302591   -0.016612229    2.6280116      21041.81      -1555366.3     -8630.3224    
 75                  7500   0.15           441.2617      -0.024741756   -0.018234912    2.4965352      20790.13      -1556345.7     -8178.5284    
 76                  7600   0.152          434.14708     -0.01392028     0.0027715466   2.4342325      20454.924     -1557200.4     -8076.9458    
 77                  7700   0.154          427.0809      -0.013089611   -0.013524437    2.3637224      20121.999     -1557992.7     -7790.361     
 78                  7800   0.156          419.65473     -0.0073855046  -0.00026075642  2.3318387      19772.114     -1558706       -7747.3083    
 79                  7900   0.158          413.49513     -0.01716665    -0.018284334    2.2377234      19481.903     -1559421.8     -7340.9081    
 80                  8000   0.16           406.03203      0.0092859384  -0.0034141047   2.227411       19130.278     -1560012.8     -7444.2761    
 81                  8100   0.162          399.22455      0.011070759    0.0076745441   2.2336858      18809.542     -1560579.7     -7508.1038    
 82                  8200   0.164          392.66423      0.031512375    0.0055952508   2.2747118      18500.451     -1561093.7     -7706.0648    
 83                  8300   0.166          385.42286      0.0017483191   0.0012589973   2.3132766      18159.273     -1561517.7     -7720.9464    
 84                  8400   0.168          381.0906       0.017882478    0.017329957    2.3076092      17955.158     -1562029.4     -7809.4053    
 85                  8500   0.17           374.53297      0.023731453    0.027511814    2.2820603      17646.194     -1562387.4     -7777.6786    
 86                  8600   0.172          368.81267      0.01094424     0.0020341071   2.3006083      17376.68      -1562734.4     -7711.9553    
 87                  8700   0.174          363.45218      7.2223797e-05 -0.00047619395  2.3326351      17124.12      -1563054.5     -7774.1038    
 88                  8800   0.176          359.20802      0.0086177042   0.0098032837   2.3649425      16924.155     -1563386       -7944.5451    
 89                  8900   0.178          354.47616     -0.011247728   -0.0056858294   2.3921433      16701.213     -1563651.8     -7917.3659    
 90                  9000   0.18           351.34655      0.025044415    0.016904699    2.4392716      16553.761     -1563964       -8270.7357    
 91                  9100   0.182          347.12865      0.0085433562  -0.0067642325   2.4387967      16355.034     -1564183.5     -8135.2527    
 92                  9200   0.184          343.64755      0.0071821231   0.0084341293   2.4807625      16191.021     -1564406.4     -8321.2624    
 93                  9300   0.186          340.54429     -0.002078481   -0.0089753614   2.5040839      16044.81      -1564617.2     -8310.1       
 94                  9400   0.188          337.32661      0.018860632    0.009105371    2.5723613      15893.209     -1564791.5     -8667.7577    
 95                  9500   0.19           334.77331     -0.018254649    0.0049952091   2.5754477      15772.909     -1564965.9     -8540.6274    
 96                  9600   0.192          331.348        0.006158521    0.0071034623   2.6189431      15611.525     -1565073.2     -8774.0169    
 97                  9700   0.194          328.72584      0.0042761415  -0.015755583    2.6906337      15487.981     -1565194.4     -8930.5141    
 98                  9800   0.196          326.48663      0.0019087099  -0.013231545    2.7003534      15382.481     -1565307.9     -8963.4353    
 99                  9900   0.198          324.19698      0.015114712    0.014671106    2.7867111      15274.604     -1565392.8     -9388.323     
 100                10000   0.2            322.07699      0.00084220003  0.013818481    2.8346828      15174.72      -1565461.7     -9497.8118    
Loop time of 4772.11 on 16 procs for 10000 steps with 364500 atoms

Performance: 1.811 ns/day, 13.256 hours/ns, 2.096 timesteps/s, 763.813 katom-step/s
100.4% CPU use with 4 MPI tasks x 4 OpenMP threads

MPI task timing breakdown:
Section |  min time  |  avg time  |  max time  |%varavg| %total
---------------------------------------------------------------
Pair    | 3967.2     | 3975.7     | 3989.1     |  13.2 | 83.31
Neigh   | 333.18     | 334.11     | 334.93     |   4.1 |  7.00
Comm    | 162.45     | 175.15     | 184.28     |  61.1 |  3.67
Output  | 3.3554     | 3.6226     | 3.9029     |  10.7 |  0.08
Modify  | 261.89     | 262.07     | 262.2      |   0.7 |  5.49
Other   |            | 21.44      |            |       |  0.45

Nlocal:          91125 ave       91340 max       90906 min
Histogram: 1 0 0 0 1 1 0 0 0 1
Nghost:        42797.2 ave       42965 max       42616 min
Histogram: 1 0 0 0 0 2 0 0 0 1
Neighs:    5.69215e+06 ave 5.72687e+06 max 5.62917e+06 min
Histogram: 1 0 0 0 0 0 1 0 1 1

Total # of neighbors = 22768610
Ave neighs/atom = 62.465322
Neighbor list builds = 2011
Dangerous builds = 0

# write output data
write_data NiCoCrFe_unirradiated_Strained.lmp
System init for write_data ...
No /omp style for force computation currently active

# end of simulation
print "Tensile test simulation completed."
Tensile test simulation completed.


Total wall time: 1:19:38
