LAMMPS (2 Aug 2023 - Update 2)
OMP_NUM_THREADS environment is not set. Defaulting to 1 thread. (src/comm.cpp:98)
  using 1 OpenMP thread(s) per MPI task
Loaded 1 plugins from C:\Users\Ratish Panda\AppData\Local\LAMMPS 64-bit 2Aug2023-MSMPI with Python\plugins
# Tensile Test Simulation in LAMMPS

# Initialize
units metal
boundary p p p
atom_style atomic

# Specify the number of OpenMP threads
package omp 4
set 4 OpenMP thread(s) per MPI task
using multi-threaded neighbor list subroutines

# Read data file (output from previous steps)
read_data NiCoCrFe_relaxed.lmp
Reading data file ...
  orthogonal box = (0.80381162 0.80381162 0.80381162) to (161.64619 161.64619 161.64619)
  2 by 1 by 2 MPI processor grid
  reading atoms ...
  364500 atoms
  reading velocities ...
  364500 velocities
  read_data CPU = 4.425 seconds

# Define potential (EAM potential for Nickel)
pair_style eam/alloy
pair_coeff * * FeNiCrCoCu-with-ZBL.eam.alloy Ni Co Cr Fe

neighbor	 1 bin
neigh_modify every 1 delay 0 check yes

#--------------------------
# Store final cell length for strain calculations
variable tmp equal "lx"
variable L0 equal ${tmp}
variable L0 equal 160.842376761277
print "Initial Length, L0: ${L0}"
Initial Length, L0: 160.842376761277

reset_timestep 0
timestep 0.01

fix 1 all npt temp 300 300 1 x 0 0 1 y 0 0 1 drag 1
variable srate equal 2.0e9
variable srate1 equal "v_srate / 1.0e12" # adjusting strain rate unit from per second to per picosecond
fix 2 all deform 1 z erate ${srate1} units box remap x
fix 2 all deform 1 z erate 0.002 units box remap x

# Output strain and stress info to file
# for units metal, pressure is in [bars] = 100 [kPa] = 1/10000 [GPa]
# p2, p3, p4 are in GPa
variable strain equal "(lz - v_L0)/v_L0"
variable p1 equal "v_strain"
variable p2 equal "-pxx/10000"
variable p3 equal "-pyy/10000"
variable p4 equal "-pzz/10000"
fix def1 all print 10 "${p1} ${p2} ${p3} ${p4}" file NiCoCrFe_Tensile_Unirradiated.def1.txt screen no

# dumping data
dump 1 all custom 1000 dump.NiCoCrFe_Tensile_Unirradiated_*.dump id type x y z
dump_modify 1 sort id

# Display thermo
thermo 100
thermo_style custom time step v_strain temp v_p2 v_p3 v_p4 ke pe press

# run tensile test for 100 ps
run 10000
No /omp style for force computation currently active
Neighbor list info ...
  update: every = 1 steps, delay = 0 steps, check = yes
  max neighbors/atom: 2000, page size: 100000
  master list distance cutoff = 6.80375
  ghost atom cutoff = 6.80375
  binsize = 3.401875, bins = 48 48 48
  1 neighbor lists, perpetual/occasional/extra = 1 0 0
  (1) pair eam/alloy, perpetual
      attributes: half, newton on, omp
      pair build: half/bin/atomonly/newton/omp
      stencil: half/bin/3d
      bin: standard
Per MPI rank memory allocation (min/avg/max) = 64.27 | 64.65 | 65.03 Mbytes
     Time         Step        v_strain         Temp           v_p2           v_p3           v_p4          KinEng         PotEng         Press     
 0                      0   3.0039911e-15  300.1357       3.1031101      3.1116984      3.1084887      14140.952     -1574038.3     -31077.657    
 1                    100   0.002          309.08248     -0.001293895    0.0040156235   0.95918967     14562.481     -1575123.8     -3206.3713    
 2                    200   0.004          307.46221     -0.0019816292  -0.0081078248   1.2244174      14486.141     -1575121.9     -4047.7599    
 3                    300   0.006          305.81989     -0.0068037142   0.0015690991   1.4875623      14408.763     -1575085       -4941.0923    
 4                    400   0.008          304.32405      0.011550437    0.0021403413   1.7670124      14338.286     -1575020.3     -5935.6772    
 5                    500   0.01           303.74174      0.019034423    0.010861522    2.0511862      14310.851     -1574969.7     -6936.9405    
 6                    600   0.012          301.93707     -0.00074201309  0.0088776907   2.294769       14225.823     -1574826.5     -7676.349     
 7                    700   0.014          301.37789      0.0041277901  -0.00022132241  2.5601281      14199.478     -1574715.8     -8546.7818    
 8                    800   0.016          300.74722     -0.0009318024  -0.0085949775   2.8226062      14169.763     -1574573.2     -9376.9315    
 9                    900   0.018          300.02164     -0.0055683808  -0.00029964184  3.0763047      14135.578     -1574397.7     -10234.789    
 10                  1000   0.02           299.89326      0.0029486622   0.0034143554   3.3395224      14129.529     -1574223.9     -11152.952    
 11                  1100   0.022          299.58035      0.0058072349  -0.0095833256   3.5809221      14114.786     -1574015.2     -11923.82     
 12                  1200   0.024          299.22303      0.00092193486  0.0041452017   3.8286066      14097.951     -1573778.5     -12778.913    
 13                  1300   0.026          299.34262      0.013453007    0.0072236746   4.0825645      14103.586     -1573547       -13677.471    
 14                  1400   0.028          299.70922      0.00072309548 -0.00078864902  4.3185331      14120.858     -1573312.3     -14394.892    
 15                  1500   0.03           299.48552      0.013048685    0.0089781359   4.5614951      14110.318     -1573037.2     -15278.406    
 16                  1600   0.032          300.04694     -0.00031734419  0.005249762    4.7919744      14136.77      -1572788.7     -15989.689    
 17                  1700   0.034          299.99232     -0.0012396967  -0.0016773754   5.026203       14134.196     -1572499       -16744.286    
 18                  1800   0.036          299.32958      0.006947437    0.0055163639   5.2650299      14102.971     -1572168.4     -17591.646    
 19                  1900   0.038          299.87395      0.013486619    0.0060161796   5.4907009      14128.619     -1571887.1     -18367.346    
 20                  2000   0.04           299.59249      0.011637686    0.0082631195   5.7255479      14115.358     -1571552.4     -19151.496    
 21                  2100   0.042          300.04429      0.0015496932   0.014204322    5.9518648      14136.645     -1571243.7     -19892.063    
 22                  2200   0.044          299.97742     -0.018803144   -0.018344362    6.1479203      14133.494     -1570897.4     -20369.243    
 23                  2300   0.046          299.73067      0.021868553    0.032906524    6.4029446      14121.868     -1570535.2     -21525.732    
 24                  2400   0.048          300.06434     -0.0074269513  -0.0016052314   6.5992621      14137.59      -1570187.9     -21967.433    
 25                  2500   0.05           299.68062      0.0025135184   0.0034490125   6.8311504      14119.51      -1569797.7     -22790.377    
 26                  2600   0.052          299.48373      0.008457958    0.019103654    7.064609       14110.234     -1569403.6     -23640.569    
 27                  2700   0.054          299.00696      0.010015063    0.013838903    7.27539        14087.771     -1568986.4     -24330.813    
 28                  2800   0.056          299.60781     -0.0021961256   0.0073821995   7.4923542      14116.08      -1568611.6     -24991.801    
 29                  2900   0.058          299.65759      0.0067263194   0.0088497002   7.7131286      14118.426     -1568201.5     -25762.349    
 30                  3000   0.06           299.72916      0.010602911    0.018120806    7.9390219      14121.797     -1567781.2     -26559.152    
 31                  3100   0.062          299.40318     -0.0031515305   0.0046630896   8.1432033      14106.439     -1567329.4     -27149.05     
 32                  3200   0.064          299.62867     -0.0080009115  -0.014401337    8.3656073      14117.063     -1566896.4     -27810.684    
 33                  3300   0.066          299.82923      0.0058997566   0.010174606    8.5859347      14126.512     -1566452       -28673.363    
 34                  3400   0.068          299.39671     -0.008005675   -0.010229075    8.7984015      14106.134     -1565966.6     -29267.222    
 35                  3500   0.07           299.87941      0.01386993     0.003290608    9.028117       14128.877     -1565515.8     -30150.925    
 36                  3600   0.072          299.33452     -0.0032143567  -0.0064952814   9.237698       14103.204     -1565001.5     -30759.961    
 37                  3700   0.074          299.88137      0.0050302264  -0.0026894477   9.4647978      14128.969     -1564533.4     -31557.129    
 38                  3800   0.076          299.63851     -0.020562468   -0.011199087    9.6748751      14117.527     -1564015       -32143.712    
 39                  3900   0.078          299.54594     -0.019185928   -0.026261635    9.9043994      14113.165     -1563492.7     -32863.173    
 40                  4000   0.08           299.26906     -0.012042355   -0.0098420675   10.126756      14100.12      -1562951.5     -33682.904    
 41                  4100   0.082          299.64324     -0.0087223422  -0.0084035829   10.358521      14117.749     -1562432.9     -34471.316    
 42                  4200   0.084          299.36276     -0.016479554   -0.023124103    10.575374      14104.535     -1561867.7     -35119.234    
 43                  4300   0.086          299.79489     -0.010330908   -0.0052285386   10.813871      14124.894     -1561330.6     -35994.372    
 44                  4400   0.088          299.23985      0.00337198     0.00093791905  11.027207      14098.744     -1560734.2     -36771.724    
 45                  4500   0.09           299.58261     -0.021148431   -0.011785783    11.26031       14114.893     -1560169.8     -37424.585    
 46                  4600   0.092          299.45288      0.0060346533   0.0010705333   11.505152      14108.78      -1559569.8     -38374.191    
 47                  4700   0.094          299.36976     -0.0042304137  -0.0024977093   11.727628      14104.864     -1558961.4     -39069.666    
 48                  4800   0.096          299.94424      0.013882173    0.012572028    11.968867      14131.931     -1558375.4     -39984.404    
 49                  4900   0.098          299.49432     -0.0063031961  -0.013716273    12.195651      14110.733     -1557726.6     -40585.439    
 50                  5000   0.1            299.61049     -0.0090999074  -4.4587382e-05  12.4223        14116.206     -1557096       -41377.186    
 51                  5100   0.102          299.67602     -0.011677855   -0.013890052    12.660588      14119.294     -1556449.1     -42116.732    
 52                  5200   0.104          299.50624      0.010475137    0.0085898789   12.894475      14111.295     -1555781.4     -43045.134    
 53                  5300   0.106          298.89138      0.0044269571   0.0078621747   13.137907      14082.325     -1555078.1     -43833.987    
 54                  5400   0.108          299.82285      0.010204974    0.016107363    13.378372      14126.212     -1554440.1     -44682.282    
 55                  5500   0.11           298.67271      0.0045093661   2.4629904e-05  13.621302      14072.022     -1553688       -45419.454    
 56                  5600   0.112          299.71832      0.012068443    0.0034674777   13.863124      14121.287     -1553033.7     -46262.199    
 57                  5700   0.114          299.76257     -0.014475669   -0.020360142    14.098817      14123.371     -1552316       -46879.939    
 58                  5800   0.116          299.61623      0.0029356009   0.0065034207   14.341661      14116.477     -1551578.4     -47837.001    
 59                  5900   0.118          299.27477     -0.024688677   -0.023277856    14.568187      14100.389     -1550820.1     -48400.735    
 60                  6000   0.12           298.44085      0.0044121236   0.0018082162   14.820132      14061.098     -1550024.1     -49421.174    
 61                  6100   0.122          298.7598       0.031328754    0.034422433    15.072267      14076.126     -1549274.5     -50460.061    
 62                  6200   0.124          299.43566     -0.0019835752   0.0044854031   15.310054      14107.969     -1548528.7     -51041.852    
 63                  6300   0.126          298.61215     -0.015553993   -0.013060636    15.528792      14069.169     -1547695.6     -51667.257    
 64                  6400   0.128          298.88538     -0.010838963    0.0010952704   15.767234      14082.042     -1546908.2     -52524.969    
 65                  6500   0.13           298.71597     -0.012429776    0.02158235     15.960429      14074.061     -1546088.7     -53231.938    
 66                  6600   0.132          298.46783     -0.017559104    0.02958674     16.06077       14062.37      -1545262.4     -53575.993    
 67                  6700   0.134          298.18741     -0.045918678    0.045589964    16.061245      14049.158     -1544432.1     -53536.388    
 68                  6800   0.136          297.51263     -0.081630244    0.093461621    15.777844      14017.365     -1543597.6     -52632.253    
 69                  6900   0.138          328.57499     -0.26284703     0.41988561     13.519216      15480.874     -1544624.1     -45587.516    
 70                  7000   0.14           397.93887     -0.10497248     0.25461765     8.0442578      18748.967     -1548528.5     -27313.01     
 71                  7100   0.142          439.29794      0.010968352   -0.0090923483   4.5210497      20697.607     -1551388.1     -15076.419    
 72                  7200   0.144          449.35786      0.01391677     0.0017048974   3.3763899      21171.583     -1553051       -11306.705    
 73                  7300   0.146          450.60392      0.023760848   -0.0017528138   2.9048379      21230.291     -1554379.6     -9756.1532    
 74                  7400   0.148          449.99835      0.0088237943  -0.006447225    2.5318298      21201.759     -1555638.9     -8447.3545    
 75                  7500   0.15           445.03966      0.0028529335  -0.0022526115   2.3493027      20968.13      -1556682.8     -7833.01      
 76                  7600   0.152          437.5817       0.018145501    0.020235837    2.3240445      20616.746     -1557554.9     -7874.7528    
 77                  7700   0.154          430.32261      0.018957376    0.0070294653   2.2969534      20274.733     -1558373.2     -7743.134     
 78                  7800   0.156          422.7394      -0.0020851806  -0.002548727    2.2556708      19917.449     -1559108.7     -7503.4562    
 79                  7900   0.158          414.59473      0.022606861    0.0092629945   2.2574251      19533.711     -1559748.2     -7630.983     
 80                  8000   0.16           406.08724     -0.022995921   -0.0096335306   2.2181451      19132.879     -1560299       -7285.0523    
 81                  8100   0.162          398.96622     -0.017817987   -0.013995003    2.2557402      18797.371     -1560854.7     -7413.0907    
 82                  8200   0.164          391.61771      0.010568822    0.0025358847   2.3080721      18451.144     -1561328.6     -7737.2561    
 83                  8300   0.166          384.81551      0.0077915156   0.012675239    2.360392       18130.657     -1561766.1     -7936.196     
 84                  8400   0.168          378.59839     -0.016691243    0.011219223    2.3778009      17837.736     -1562176.4     -7907.7628    
 85                  8500   0.17           372.00393     -0.027275236   -0.017982558    2.4509061      17527.037     -1562508.9     -8018.8275    
 86                  8600   0.172          366.07089     -0.011521017   -0.014653591    2.5292793      17247.501     -1562818.4     -8343.6824    
 87                  8700   0.174          361.68031      0.020513793    0.019584617    2.6339276      17040.638     -1563150       -8913.42      
 88                  8800   0.176          356.76925     -0.029927587   -0.0049880605   2.6651573      16809.252     -1563412.6     -8767.4723    
 89                  8900   0.178          351.4216       0.024157353    0.024775394    2.7681925      16557.297     -1563607       -9390.4175    
 90                  9000   0.18           347.3627       0.0063634615   0.016059712    2.8120673      16366.061     -1563823.9     -9448.3016    
 91                  9100   0.182          343.91533     -0.024839778   -0.036186639    2.7810775      16203.637     -1564031.7     -9066.8369    
 92                  9200   0.184          341.5587       0.028930602    0.026180802    2.8046514      16092.604     -1564267.3     -9532.5426    
 93                  9300   0.186          337.5393      -0.015418688    0.0027537532   2.7836975      15903.229     -1564394.9     -9236.7751    
 94                  9400   0.188          335.08761      0.0036193114   0.0023913475   2.8325755      15787.718     -1564576.1     -9461.9539    
 95                  9500   0.19           333.27847      0.026821078    0.021243933    2.8513943      15702.48      -1564763.3     -9664.8645    
 96                  9600   0.192          329.8082      -0.015767608   -0.014243184    2.8670536      15538.977     -1564845.2     -9456.8093    
 97                  9700   0.194          327.58315      0.026174817    0.024986701    2.9345763      15434.143     -1564963.5     -9952.4595    
 98                  9800   0.196          325.80899      0.01778333     0.024572785    2.9795027      15350.554     -1565080.8     -10072.863    
 99                  9900   0.198          322.92476      8.0583621e-05 -0.0038049654   3.0439784      15214.663     -1565121.2     -10134.18     
 100                10000   0.2            321.93976      0.0027145195   0.01211342     3.1567682      15168.254     -1565230.2     -10571.987    
Loop time of 4056.47 on 16 procs for 10000 steps with 364500 atoms

Performance: 2.130 ns/day, 11.268 hours/ns, 2.465 timesteps/s, 898.565 katom-step/s
103.0% CPU use with 4 MPI tasks x 4 OpenMP threads

MPI task timing breakdown:
Section |  min time  |  avg time  |  max time  |%varavg| %total
---------------------------------------------------------------
Pair    | 3292.4     | 3299.7     | 3307.4     |  10.8 | 81.34
Neigh   | 312.98     | 313.36     | 313.6      |   1.4 |  7.72
Comm    | 173.59     | 181.42     | 189.18     |  47.5 |  4.47
Output  | 2.8326     | 3.1049     | 3.3752     |  11.4 |  0.08
Modify  | 239.83     | 240.3      | 240.95     |   2.6 |  5.92
Other   |            | 18.6       |            |       |  0.46

Nlocal:          91125 ave       91498 max       90717 min
Histogram: 1 0 0 0 1 0 1 0 0 1
Nghost:        42445.5 ave       42892 max       42123 min
Histogram: 1 0 0 2 0 0 0 0 0 1
Neighs:    5.67326e+06 ave 5.69331e+06 max  5.6431e+06 min
Histogram: 1 0 0 0 1 0 0 0 0 2

Total # of neighbors = 22693045
Ave neighs/atom = 62.258011
Neighbor list builds = 2015
Dangerous builds = 0

# write output data
write_data NiCoCrFe_unirradiated_Strained.lmp
System init for write_data ...
No /omp style for force computation currently active

# end of simulation
print "Tensile test simulation completed."
Tensile test simulation completed.


Total wall time: 1:07:42
