LAMMPS (2 Aug 2023 - Update 2)
OMP_NUM_THREADS environment is not set. Defaulting to 1 thread. (src/comm.cpp:98)
  using 1 OpenMP thread(s) per MPI task
Loaded 1 plugins from C:\Users\Ratish Panda\AppData\Local\LAMMPS 64-bit 2Aug2023-MSMPI with Python\plugins
# LAMMPS input script for PKA radiation damage in NiCoCrFe at 5 keV
# Establish crystal model, apply 3D PBC, introduce PKA, simulate damage
# Uses 2021 ZBL-splined potential

# Initialize
units metal
boundary p p p
atom_style atomic

# Specify the number of OpenMP threads
package omp 4
set 4 OpenMP thread(s) per MPI task
using multi-threaded neighbor list subroutines

# Read relaxed data file (output from relaxation)
read_data NiCoCrFe_relaxed.lmp
Reading data file ...
  orthogonal box = (0.80381162 0.80381162 0.80381162) to (161.64619 161.64619 161.64619)
  2 by 1 by 2 MPI processor grid
  reading atoms ...
  364500 atoms
  reading velocities ...
  364500 velocities
  read_data CPU = 4.944 seconds

# Define potential (EAM potential for Nickel)
pair_style eam/alloy
pair_coeff * * FeNiCrCoCu-with-ZBL.eam.alloy Ni Co Cr Fe

neighbor	 1 bin
neigh_modify every 1 delay 0 check yes

# Define thermodynamic dump parameters
reset_timestep 0
thermo 100
thermo_style custom time step temp press etotal

# Apply 3D periodic boundary conditions (already applied by 'read_data')
# No need for create_box or create_atoms

# Dump settings for atomic configurations (optional)
# Use if you want to visualize the simulation progress
dump 1 all custom 1000 NiCoCrFe_pka_5kev_*.dump id type x y z
dump_modify 1 sort id

# PKA radiation damage process
# Define PKA properties
variable pka_energy equal 5.0  # PKA energy in keV
variable pka_direction_x equal 0  # PKA direction x-component
variable pka_direction_y equal 0  # PKA direction y-component
variable pka_direction_z equal 1  # PKA direction z-component

# Calculate center of the simulation cell
variable cell_center_x equal lx/2
variable cell_center_y equal ly/2
variable cell_center_z equal lz/2

# Define radius for selecting recoil atom
variable radius equal 5.0 # This encompasses a bunch of central atoms - at least one should be an Fe atom

# Pick a random atom near the center as the recoil atom
region center_sphere sphere ${cell_center_x} ${cell_center_y} ${cell_center_z} ${radius}
region center_sphere sphere 80.4211883806387 ${cell_center_y} ${cell_center_z} ${radius}
region center_sphere sphere 80.4211883806387 80.4211883806387 ${cell_center_z} ${radius}
region center_sphere sphere 80.4211883806387 80.4211883806387 80.4211883806387 ${radius}
region center_sphere sphere 80.4211883806387 80.4211883806387 80.4211883806387 5

# Create a group of atoms within the defined center region
group center_atoms region center_sphere
44 atoms in group center_atoms

# Create a group of Fe atoms
group fe_atoms type 2 # type 2 is Fe
91125 atoms in group fe_atoms

# PKA velocity is determined by mass of Fe atom, which is selected as PKA atom
# Set PKA velocity to 1314 angstroms per picosecond in specified direction
variable pka_velocity equal 1314.0

region select sphere ${cell_center_x} ${cell_center_y} ${cell_center_z} ${radius}
region select sphere 80.4211883806387 ${cell_center_y} ${cell_center_z} ${radius}
region select sphere 80.4211883806387 80.4211883806387 ${cell_center_z} ${radius}
region select sphere 80.4211883806387 80.4211883806387 80.4211883806387 ${radius}
region select sphere 80.4211883806387 80.4211883806387 80.4211883806387 5
group select empty
0 atoms in group select
variable inside equal count(select,select) #there should not be any empty space between select and select (very hard to debug)
variable n loop 400000 # set to 400000, more than number of atoms in sim cell

label jump
variable select index $(random(1,atoms,364500):%.0f)
variable select index 296858
group select id ${select}
group select id 296858
1 atoms in group select
if "${inside} == 0" then     "group select delete"     "variable select delete"     "next n"     "jump SELF jump"
group select delete
variable select delete
next n
jump SELF jump
variable select index $(random(1,atoms,364500):%.0f)
variable select index 201280
group select id ${select}
group select id 201280
1 atoms in group select
if "${inside} == 0" then     "group select delete"     "variable select delete"     "next n"     "jump SELF jump"
group select delete
variable select delete
next n
jump SELF jump
variable select index $(random(1,atoms,364500):%.0f)
variable select index 132091
group select id ${select}
group select id 132091
1 atoms in group select
if "${inside} == 0" then     "group select delete"     "variable select delete"     "next n"     "jump SELF jump"
group select delete
variable select delete
next n
jump SELF jump
variable select index $(random(1,atoms,364500):%.0f)
variable select index 38085
group select id ${select}
group select id 38085
1 atoms in group select
if "${inside} == 0" then     "group select delete"     "variable select delete"     "next n"     "jump SELF jump"
group select delete
variable select delete
next n
jump SELF jump
variable select index $(random(1,atoms,364500):%.0f)
variable select index 263551
group select id ${select}
group select id 263551
1 atoms in group select
if "${inside} == 0" then     "group select delete"     "variable select delete"     "next n"     "jump SELF jump"
group select delete
variable select delete
next n
jump SELF jump
variable select index $(random(1,atoms,364500):%.0f)
variable select index 253872
group select id ${select}
group select id 253872
1 atoms in group select
if "${inside} == 0" then     "group select delete"     "variable select delete"     "next n"     "jump SELF jump"
group select delete
variable select delete
next n
jump SELF jump
variable select index $(random(1,atoms,364500):%.0f)
variable select index 172830
group select id ${select}
group select id 172830
1 atoms in group select
if "${inside} == 0" then     "group select delete"     "variable select delete"     "next n"     "jump SELF jump"
group select delete
variable select delete
next n
jump SELF jump
variable select index $(random(1,atoms,364500):%.0f)
variable select index 150260
group select id ${select}
group select id 150260
1 atoms in group select
if "${inside} == 0" then     "group select delete"     "variable select delete"     "next n"     "jump SELF jump"
group select delete
variable select delete
next n
jump SELF jump
variable select index $(random(1,atoms,364500):%.0f)
variable select index 301592
group select id ${select}
group select id 301592
1 atoms in group select
if "${inside} == 0" then     "group select delete"     "variable select delete"     "next n"     "jump SELF jump"
group select delete
variable select delete
next n
jump SELF jump
variable select index $(random(1,atoms,364500):%.0f)
variable select index 51471
group select id ${select}
group select id 51471
1 atoms in group select
if "${inside} == 0" then     "group select delete"     "variable select delete"     "next n"     "jump SELF jump"
group select delete
variable select delete
next n
jump SELF jump
variable select index $(random(1,atoms,364500):%.0f)
variable select index 279840
group select id ${select}
group select id 279840
1 atoms in group select
if "${inside} == 0" then     "group select delete"     "variable select delete"     "next n"     "jump SELF jump"
group select delete
variable select delete
next n
jump SELF jump
variable select index $(random(1,atoms,364500):%.0f)
variable select index 209519
group select id ${select}
group select id 209519
1 atoms in group select
if "${inside} == 0" then     "group select delete"     "variable select delete"     "next n"     "jump SELF jump"
group select delete
variable select delete
next n
jump SELF jump
variable select index $(random(1,atoms,364500):%.0f)
variable select index 292929
group select id ${select}
group select id 292929
1 atoms in group select
if "${inside} == 0" then     "group select delete"     "variable select delete"     "next n"     "jump SELF jump"
group select delete
variable select delete
next n
jump SELF jump
variable select index $(random(1,atoms,364500):%.0f)
variable select index 338241
group select id ${select}
group select id 338241
1 atoms in group select
if "${inside} == 0" then     "group select delete"     "variable select delete"     "next n"     "jump SELF jump"
group select delete
variable select delete
next n
jump SELF jump
variable select index $(random(1,atoms,364500):%.0f)
variable select index 277311
group select id ${select}
group select id 277311
1 atoms in group select
if "${inside} == 0" then     "group select delete"     "variable select delete"     "next n"     "jump SELF jump"
group select delete
variable select delete
next n
jump SELF jump
variable select index $(random(1,atoms,364500):%.0f)
variable select index 192326
group select id ${select}
group select id 192326
1 atoms in group select
if "${inside} == 0" then     "group select delete"     "variable select delete"     "next n"     "jump SELF jump"
group select delete
variable select delete
next n
jump SELF jump
variable select index $(random(1,atoms,364500):%.0f)
variable select index 354544
group select id ${select}
group select id 354544
1 atoms in group select
if "${inside} == 0" then     "group select delete"     "variable select delete"     "next n"     "jump SELF jump"
group select delete
variable select delete
next n
jump SELF jump
variable select index $(random(1,atoms,364500):%.0f)
variable select index 196152
group select id ${select}
group select id 196152
1 atoms in group select
if "${inside} == 0" then     "group select delete"     "variable select delete"     "next n"     "jump SELF jump"
group select delete
variable select delete
next n
jump SELF jump
variable select index $(random(1,atoms,364500):%.0f)
variable select index 107038
group select id ${select}
group select id 107038
1 atoms in group select
if "${inside} == 0" then     "group select delete"     "variable select delete"     "next n"     "jump SELF jump"
group select delete
variable select delete
next n
jump SELF jump
variable select index $(random(1,atoms,364500):%.0f)
variable select index 301559
group select id ${select}
group select id 301559
1 atoms in group select
if "${inside} == 0" then     "group select delete"     "variable select delete"     "next n"     "jump SELF jump"
group select delete
variable select delete
next n
jump SELF jump
variable select index $(random(1,atoms,364500):%.0f)
variable select index 239046
group select id ${select}
group select id 239046
1 atoms in group select
if "${inside} == 0" then     "group select delete"     "variable select delete"     "next n"     "jump SELF jump"
group select delete
variable select delete
next n
jump SELF jump
variable select index $(random(1,atoms,364500):%.0f)
variable select index 196791
group select id ${select}
group select id 196791
1 atoms in group select
if "${inside} == 0" then     "group select delete"     "variable select delete"     "next n"     "jump SELF jump"
group select delete
variable select delete
next n
jump SELF jump
variable select index $(random(1,atoms,364500):%.0f)
variable select index 98039
group select id ${select}
group select id 98039
1 atoms in group select
if "${inside} == 0" then     "group select delete"     "variable select delete"     "next n"     "jump SELF jump"
group select delete
variable select delete
next n
jump SELF jump
variable select index $(random(1,atoms,364500):%.0f)
variable select index 46037
group select id ${select}
group select id 46037
1 atoms in group select
if "${inside} == 0" then     "group select delete"     "variable select delete"     "next n"     "jump SELF jump"
group select delete
variable select delete
next n
jump SELF jump
variable select index $(random(1,atoms,364500):%.0f)
variable select index 280931
group select id ${select}
group select id 280931
1 atoms in group select
if "${inside} == 0" then     "group select delete"     "variable select delete"     "next n"     "jump SELF jump"
group select delete
variable select delete
next n
jump SELF jump
variable select index $(random(1,atoms,364500):%.0f)
variable select index 122278
group select id ${select}
group select id 122278
1 atoms in group select
if "${inside} == 0" then     "group select delete"     "variable select delete"     "next n"     "jump SELF jump"
group select delete
variable select delete
next n
jump SELF jump
variable select index $(random(1,atoms,364500):%.0f)
variable select index 251282
group select id ${select}
group select id 251282
1 atoms in group select
if "${inside} == 0" then     "group select delete"     "variable select delete"     "next n"     "jump SELF jump"
group select delete
variable select delete
next n
jump SELF jump
variable select index $(random(1,atoms,364500):%.0f)
variable select index 190405
group select id ${select}
group select id 190405
1 atoms in group select
if "${inside} == 0" then     "group select delete"     "variable select delete"     "next n"     "jump SELF jump"
group select delete
variable select delete
next n
jump SELF jump
variable select index $(random(1,atoms,364500):%.0f)
variable select index 139996
group select id ${select}
group select id 139996
1 atoms in group select
if "${inside} == 0" then     "group select delete"     "variable select delete"     "next n"     "jump SELF jump"
group select delete
variable select delete
next n
jump SELF jump
variable select index $(random(1,atoms,364500):%.0f)
variable select index 137051
group select id ${select}
group select id 137051
1 atoms in group select
if "${inside} == 0" then     "group select delete"     "variable select delete"     "next n"     "jump SELF jump"
group select delete
variable select delete
next n
jump SELF jump
variable select index $(random(1,atoms,364500):%.0f)
variable select index 220528
group select id ${select}
group select id 220528
1 atoms in group select
if "${inside} == 0" then     "group select delete"     "variable select delete"     "next n"     "jump SELF jump"
group select delete
variable select delete
next n
jump SELF jump
variable select index $(random(1,atoms,364500):%.0f)
variable select index 39777
group select id ${select}
group select id 39777
1 atoms in group select
if "${inside} == 0" then     "group select delete"     "variable select delete"     "next n"     "jump SELF jump"
group select delete
variable select delete
next n
jump SELF jump
variable select index $(random(1,atoms,364500):%.0f)
variable select index 200143
group select id ${select}
group select id 200143
1 atoms in group select
if "${inside} == 0" then     "group select delete"     "variable select delete"     "next n"     "jump SELF jump"
group select delete
variable select delete
next n
jump SELF jump
variable select index $(random(1,atoms,364500):%.0f)
variable select index 139841
group select id ${select}
group select id 139841
1 atoms in group select
if "${inside} == 0" then     "group select delete"     "variable select delete"     "next n"     "jump SELF jump"
group select delete
variable select delete
next n
jump SELF jump
variable select index $(random(1,atoms,364500):%.0f)
variable select index 22448
group select id ${select}
group select id 22448
1 atoms in group select
if "${inside} == 0" then     "group select delete"     "variable select delete"     "next n"     "jump SELF jump"
group select delete
variable select delete
next n
jump SELF jump
variable select index $(random(1,atoms,364500):%.0f)
variable select index 204592
group select id ${select}
group select id 204592
1 atoms in group select
if "${inside} == 0" then     "group select delete"     "variable select delete"     "next n"     "jump SELF jump"
group select delete
variable select delete
next n
jump SELF jump
variable select index $(random(1,atoms,364500):%.0f)
variable select index 109485
group select id ${select}
group select id 109485
1 atoms in group select
if "${inside} == 0" then     "group select delete"     "variable select delete"     "next n"     "jump SELF jump"
group select delete
variable select delete
next n
jump SELF jump
variable select index $(random(1,atoms,364500):%.0f)
variable select index 98450
group select id ${select}
group select id 98450
1 atoms in group select
if "${inside} == 0" then     "group select delete"     "variable select delete"     "next n"     "jump SELF jump"
group select delete
variable select delete
next n
jump SELF jump
variable select index $(random(1,atoms,364500):%.0f)
variable select index 114092
group select id ${select}
group select id 114092
1 atoms in group select
if "${inside} == 0" then     "group select delete"     "variable select delete"     "next n"     "jump SELF jump"
group select delete
variable select delete
next n
jump SELF jump
variable select index $(random(1,atoms,364500):%.0f)
variable select index 334052
group select id ${select}
group select id 334052
1 atoms in group select
if "${inside} == 0" then     "group select delete"     "variable select delete"     "next n"     "jump SELF jump"
group select delete
variable select delete
next n
jump SELF jump
variable select index $(random(1,atoms,364500):%.0f)
variable select index 184114
group select id ${select}
group select id 184114
1 atoms in group select
if "${inside} == 0" then     "group select delete"     "variable select delete"     "next n"     "jump SELF jump"
group select delete
variable select delete
next n
jump SELF jump
variable select index $(random(1,atoms,364500):%.0f)
variable select index 14806
group select id ${select}
group select id 14806
1 atoms in group select
if "${inside} == 0" then     "group select delete"     "variable select delete"     "next n"     "jump SELF jump"
group select delete
variable select delete
next n
jump SELF jump
variable select index $(random(1,atoms,364500):%.0f)
variable select index 8726
group select id ${select}
group select id 8726
1 atoms in group select
if "${inside} == 0" then     "group select delete"     "variable select delete"     "next n"     "jump SELF jump"
group select delete
variable select delete
next n
jump SELF jump
variable select index $(random(1,atoms,364500):%.0f)
variable select index 340185
group select id ${select}
group select id 340185
1 atoms in group select
if "${inside} == 0" then     "group select delete"     "variable select delete"     "next n"     "jump SELF jump"
group select delete
variable select delete
next n
jump SELF jump
variable select index $(random(1,atoms,364500):%.0f)
variable select index 76793
group select id ${select}
group select id 76793
1 atoms in group select
if "${inside} == 0" then     "group select delete"     "variable select delete"     "next n"     "jump SELF jump"
group select delete
variable select delete
next n
jump SELF jump
variable select index $(random(1,atoms,364500):%.0f)
variable select index 66608
group select id ${select}
group select id 66608
1 atoms in group select
if "${inside} == 0" then     "group select delete"     "variable select delete"     "next n"     "jump SELF jump"
group select delete
variable select delete
next n
jump SELF jump
variable select index $(random(1,atoms,364500):%.0f)
variable select index 20972
group select id ${select}
group select id 20972
1 atoms in group select
if "${inside} == 0" then     "group select delete"     "variable select delete"     "next n"     "jump SELF jump"
group select delete
variable select delete
next n
jump SELF jump
variable select index $(random(1,atoms,364500):%.0f)
variable select index 244687
group select id ${select}
group select id 244687
1 atoms in group select
if "${inside} == 0" then     "group select delete"     "variable select delete"     "next n"     "jump SELF jump"
group select delete
variable select delete
next n
jump SELF jump
variable select index $(random(1,atoms,364500):%.0f)
variable select index 356198
group select id ${select}
group select id 356198
1 atoms in group select
if "${inside} == 0" then     "group select delete"     "variable select delete"     "next n"     "jump SELF jump"
group select delete
variable select delete
next n
jump SELF jump
variable select index $(random(1,atoms,364500):%.0f)
variable select index 167189
group select id ${select}
group select id 167189
1 atoms in group select
if "${inside} == 0" then     "group select delete"     "variable select delete"     "next n"     "jump SELF jump"
group select delete
variable select delete
next n
jump SELF jump
variable select index $(random(1,atoms,364500):%.0f)
variable select index 349952
group select id ${select}
group select id 349952
1 atoms in group select
if "${inside} == 0" then     "group select delete"     "variable select delete"     "next n"     "jump SELF jump"
group select delete
variable select delete
next n
jump SELF jump
variable select index $(random(1,atoms,364500):%.0f)
variable select index 318419
group select id ${select}
group select id 318419
1 atoms in group select
if "${inside} == 0" then     "group select delete"     "variable select delete"     "next n"     "jump SELF jump"
group select delete
variable select delete
next n
jump SELF jump
variable select index $(random(1,atoms,364500):%.0f)
variable select index 224029
group select id ${select}
group select id 224029
1 atoms in group select
if "${inside} == 0" then     "group select delete"     "variable select delete"     "next n"     "jump SELF jump"
group select delete
variable select delete
next n
jump SELF jump
variable select index $(random(1,atoms,364500):%.0f)
variable select index 214595
group select id ${select}
group select id 214595
1 atoms in group select
if "${inside} == 0" then     "group select delete"     "variable select delete"     "next n"     "jump SELF jump"
group select delete
variable select delete
next n
jump SELF jump
variable select index $(random(1,atoms,364500):%.0f)
variable select index 17925
group select id ${select}
group select id 17925
1 atoms in group select
if "${inside} == 0" then     "group select delete"     "variable select delete"     "next n"     "jump SELF jump"
group select delete
variable select delete
next n
jump SELF jump
variable select index $(random(1,atoms,364500):%.0f)
variable select index 106171
group select id ${select}
group select id 106171
1 atoms in group select
if "${inside} == 0" then     "group select delete"     "variable select delete"     "next n"     "jump SELF jump"
group select delete
variable select delete
next n
jump SELF jump
variable select index $(random(1,atoms,364500):%.0f)
variable select index 24786
group select id ${select}
group select id 24786
1 atoms in group select
if "${inside} == 0" then     "group select delete"     "variable select delete"     "next n"     "jump SELF jump"
group select delete
variable select delete
next n
jump SELF jump
variable select index $(random(1,atoms,364500):%.0f)
variable select index 126804
group select id ${select}
group select id 126804
1 atoms in group select
if "${inside} == 0" then     "group select delete"     "variable select delete"     "next n"     "jump SELF jump"
group select delete
variable select delete
next n
jump SELF jump
variable select index $(random(1,atoms,364500):%.0f)
variable select index 346543
group select id ${select}
group select id 346543
1 atoms in group select
if "${inside} == 0" then     "group select delete"     "variable select delete"     "next n"     "jump SELF jump"
group select delete
variable select delete
next n
jump SELF jump
variable select index $(random(1,atoms,364500):%.0f)
variable select index 352807
group select id ${select}
group select id 352807
1 atoms in group select
if "${inside} == 0" then     "group select delete"     "variable select delete"     "next n"     "jump SELF jump"
group select delete
variable select delete
next n
jump SELF jump
variable select index $(random(1,atoms,364500):%.0f)
variable select index 60672
group select id ${select}
group select id 60672
1 atoms in group select
if "${inside} == 0" then     "group select delete"     "variable select delete"     "next n"     "jump SELF jump"
group select delete
variable select delete
next n
jump SELF jump
variable select index $(random(1,atoms,364500):%.0f)
variable select index 346740
group select id ${select}
group select id 346740
1 atoms in group select
if "${inside} == 0" then     "group select delete"     "variable select delete"     "next n"     "jump SELF jump"
group select delete
variable select delete
next n
jump SELF jump
variable select index $(random(1,atoms,364500):%.0f)
variable select index 303166
group select id ${select}
group select id 303166
1 atoms in group select
if "${inside} == 0" then     "group select delete"     "variable select delete"     "next n"     "jump SELF jump"
group select delete
variable select delete
next n
jump SELF jump
variable select index $(random(1,atoms,364500):%.0f)
variable select index 9020
group select id ${select}
group select id 9020
1 atoms in group select
if "${inside} == 0" then     "group select delete"     "variable select delete"     "next n"     "jump SELF jump"
group select delete
variable select delete
next n
jump SELF jump
variable select index $(random(1,atoms,364500):%.0f)
variable select index 270250
group select id ${select}
group select id 270250
1 atoms in group select
if "${inside} == 0" then     "group select delete"     "variable select delete"     "next n"     "jump SELF jump"
group select delete
variable select delete
next n
jump SELF jump
variable select index $(random(1,atoms,364500):%.0f)
variable select index 211694
group select id ${select}
group select id 211694
1 atoms in group select
if "${inside} == 0" then     "group select delete"     "variable select delete"     "next n"     "jump SELF jump"
group select delete
variable select delete
next n
jump SELF jump
variable select index $(random(1,atoms,364500):%.0f)
variable select index 121124
group select id ${select}
group select id 121124
1 atoms in group select
if "${inside} == 0" then     "group select delete"     "variable select delete"     "next n"     "jump SELF jump"
group select delete
variable select delete
next n
jump SELF jump
variable select index $(random(1,atoms,364500):%.0f)
variable select index 10323
group select id ${select}
group select id 10323
1 atoms in group select
if "${inside} == 0" then     "group select delete"     "variable select delete"     "next n"     "jump SELF jump"
group select delete
variable select delete
next n
jump SELF jump
variable select index $(random(1,atoms,364500):%.0f)
variable select index 163586
group select id ${select}
group select id 163586
1 atoms in group select
if "${inside} == 0" then     "group select delete"     "variable select delete"     "next n"     "jump SELF jump"
group select delete
variable select delete
next n
jump SELF jump
variable select index $(random(1,atoms,364500):%.0f)
variable select index 1792
group select id ${select}
group select id 1792
1 atoms in group select
if "${inside} == 0" then     "group select delete"     "variable select delete"     "next n"     "jump SELF jump"
group select delete
variable select delete
next n
jump SELF jump
variable select index $(random(1,atoms,364500):%.0f)
variable select index 221899
group select id ${select}
group select id 221899
1 atoms in group select
if "${inside} == 0" then     "group select delete"     "variable select delete"     "next n"     "jump SELF jump"
group select delete
variable select delete
next n
jump SELF jump
variable select index $(random(1,atoms,364500):%.0f)
variable select index 332804
group select id ${select}
group select id 332804
1 atoms in group select
if "${inside} == 0" then     "group select delete"     "variable select delete"     "next n"     "jump SELF jump"
group select delete
variable select delete
next n
jump SELF jump
variable select index $(random(1,atoms,364500):%.0f)
variable select index 241990
group select id ${select}
group select id 241990
1 atoms in group select
if "${inside} == 0" then     "group select delete"     "variable select delete"     "next n"     "jump SELF jump"
group select delete
variable select delete
next n
jump SELF jump
variable select index $(random(1,atoms,364500):%.0f)
variable select index 91264
group select id ${select}
group select id 91264
1 atoms in group select
if "${inside} == 0" then     "group select delete"     "variable select delete"     "next n"     "jump SELF jump"
group select delete
variable select delete
next n
jump SELF jump
variable select index $(random(1,atoms,364500):%.0f)
variable select index 252682
group select id ${select}
group select id 252682
1 atoms in group select
if "${inside} == 0" then     "group select delete"     "variable select delete"     "next n"     "jump SELF jump"
group select delete
variable select delete
next n
jump SELF jump
variable select index $(random(1,atoms,364500):%.0f)
variable select index 309076
group select id ${select}
group select id 309076
1 atoms in group select
if "${inside} == 0" then     "group select delete"     "variable select delete"     "next n"     "jump SELF jump"
group select delete
variable select delete
next n
jump SELF jump
variable select index $(random(1,atoms,364500):%.0f)
variable select index 17288
group select id ${select}
group select id 17288
1 atoms in group select
if "${inside} == 0" then     "group select delete"     "variable select delete"     "next n"     "jump SELF jump"
group select delete
variable select delete
next n
jump SELF jump
variable select index $(random(1,atoms,364500):%.0f)
variable select index 348896
group select id ${select}
group select id 348896
1 atoms in group select
if "${inside} == 0" then     "group select delete"     "variable select delete"     "next n"     "jump SELF jump"
group select delete
variable select delete
next n
jump SELF jump
variable select index $(random(1,atoms,364500):%.0f)
variable select index 24504
group select id ${select}
group select id 24504
1 atoms in group select
if "${inside} == 0" then     "group select delete"     "variable select delete"     "next n"     "jump SELF jump"
group select delete
variable select delete
next n
jump SELF jump
variable select index $(random(1,atoms,364500):%.0f)
variable select index 10118
group select id ${select}
group select id 10118
1 atoms in group select
if "${inside} == 0" then     "group select delete"     "variable select delete"     "next n"     "jump SELF jump"
group select delete
variable select delete
next n
jump SELF jump
variable select index $(random(1,atoms,364500):%.0f)
variable select index 358564
group select id ${select}
group select id 358564
1 atoms in group select
if "${inside} == 0" then     "group select delete"     "variable select delete"     "next n"     "jump SELF jump"
group select delete
variable select delete
next n
jump SELF jump
variable select index $(random(1,atoms,364500):%.0f)
variable select index 296167
group select id ${select}
group select id 296167
1 atoms in group select
if "${inside} == 0" then     "group select delete"     "variable select delete"     "next n"     "jump SELF jump"
group select delete
variable select delete
next n
jump SELF jump
variable select index $(random(1,atoms,364500):%.0f)
variable select index 61766
group select id ${select}
group select id 61766
1 atoms in group select
if "${inside} == 0" then     "group select delete"     "variable select delete"     "next n"     "jump SELF jump"
group select delete
variable select delete
next n
jump SELF jump
variable select index $(random(1,atoms,364500):%.0f)
variable select index 287586
group select id ${select}
group select id 287586
1 atoms in group select
if "${inside} == 0" then     "group select delete"     "variable select delete"     "next n"     "jump SELF jump"
group select delete
variable select delete
next n
jump SELF jump
variable select index $(random(1,atoms,364500):%.0f)
variable select index 85730
group select id ${select}
group select id 85730
1 atoms in group select
if "${inside} == 0" then     "group select delete"     "variable select delete"     "next n"     "jump SELF jump"
group select delete
variable select delete
next n
jump SELF jump
variable select index $(random(1,atoms,364500):%.0f)
variable select index 53870
group select id ${select}
group select id 53870
1 atoms in group select
if "${inside} == 0" then     "group select delete"     "variable select delete"     "next n"     "jump SELF jump"
group select delete
variable select delete
next n
jump SELF jump
variable select index $(random(1,atoms,364500):%.0f)
variable select index 51836
group select id ${select}
group select id 51836
1 atoms in group select
if "${inside} == 0" then     "group select delete"     "variable select delete"     "next n"     "jump SELF jump"
group select delete
variable select delete
next n
jump SELF jump
variable select index $(random(1,atoms,364500):%.0f)
variable select index 159359
group select id ${select}
group select id 159359
1 atoms in group select
if "${inside} == 0" then     "group select delete"     "variable select delete"     "next n"     "jump SELF jump"
group select delete
variable select delete
next n
jump SELF jump
variable select index $(random(1,atoms,364500):%.0f)
variable select index 185816
group select id ${select}
group select id 185816
1 atoms in group select
if "${inside} == 0" then     "group select delete"     "variable select delete"     "next n"     "jump SELF jump"
group select delete
variable select delete
next n
jump SELF jump
variable select index $(random(1,atoms,364500):%.0f)
variable select index 357145
group select id ${select}
group select id 357145
1 atoms in group select
if "${inside} == 0" then     "group select delete"     "variable select delete"     "next n"     "jump SELF jump"
group select delete
variable select delete
next n
jump SELF jump
variable select index $(random(1,atoms,364500):%.0f)
variable select index 326587
group select id ${select}
group select id 326587
1 atoms in group select
if "${inside} == 0" then     "group select delete"     "variable select delete"     "next n"     "jump SELF jump"
group select delete
variable select delete
next n
jump SELF jump
variable select index $(random(1,atoms,364500):%.0f)
variable select index 241611
group select id ${select}
group select id 241611
1 atoms in group select
if "${inside} == 0" then     "group select delete"     "variable select delete"     "next n"     "jump SELF jump"
group select delete
variable select delete
next n
jump SELF jump
variable select index $(random(1,atoms,364500):%.0f)
variable select index 34358
group select id ${select}
group select id 34358
1 atoms in group select
if "${inside} == 0" then     "group select delete"     "variable select delete"     "next n"     "jump SELF jump"
group select delete
variable select delete
next n
jump SELF jump
variable select index $(random(1,atoms,364500):%.0f)
variable select index 191638
group select id ${select}
group select id 191638
1 atoms in group select
if "${inside} == 0" then     "group select delete"     "variable select delete"     "next n"     "jump SELF jump"
group select delete
variable select delete
next n
jump SELF jump
variable select index $(random(1,atoms,364500):%.0f)
variable select index 147393
group select id ${select}
group select id 147393
1 atoms in group select
if "${inside} == 0" then     "group select delete"     "variable select delete"     "next n"     "jump SELF jump"
group select delete
variable select delete
next n
jump SELF jump
variable select index $(random(1,atoms,364500):%.0f)
variable select index 341822
group select id ${select}
group select id 341822
1 atoms in group select
if "${inside} == 0" then     "group select delete"     "variable select delete"     "next n"     "jump SELF jump"
group select delete
variable select delete
next n
jump SELF jump
variable select index $(random(1,atoms,364500):%.0f)
variable select index 51059
group select id ${select}
group select id 51059
1 atoms in group select
if "${inside} == 0" then     "group select delete"     "variable select delete"     "next n"     "jump SELF jump"
group select delete
variable select delete
next n
jump SELF jump
variable select index $(random(1,atoms,364500):%.0f)
variable select index 152143
group select id ${select}
group select id 152143
1 atoms in group select
if "${inside} == 0" then     "group select delete"     "variable select delete"     "next n"     "jump SELF jump"
group select delete
variable select delete
next n
jump SELF jump
variable select index $(random(1,atoms,364500):%.0f)
variable select index 281418
group select id ${select}
group select id 281418
1 atoms in group select
if "${inside} == 0" then     "group select delete"     "variable select delete"     "next n"     "jump SELF jump"
group select delete
variable select delete
next n
jump SELF jump
variable select index $(random(1,atoms,364500):%.0f)
variable select index 104597
group select id ${select}
group select id 104597
1 atoms in group select
if "${inside} == 0" then     "group select delete"     "variable select delete"     "next n"     "jump SELF jump"
group select delete
variable select delete
next n
jump SELF jump
variable select index $(random(1,atoms,364500):%.0f)
variable select index 287688
group select id ${select}
group select id 287688
1 atoms in group select
if "${inside} == 0" then     "group select delete"     "variable select delete"     "next n"     "jump SELF jump"
group select delete
variable select delete
next n
jump SELF jump
variable select index $(random(1,atoms,364500):%.0f)
variable select index 161689
group select id ${select}
group select id 161689
1 atoms in group select
if "${inside} == 0" then     "group select delete"     "variable select delete"     "next n"     "jump SELF jump"
group select delete
variable select delete
next n
jump SELF jump
variable select index $(random(1,atoms,364500):%.0f)
variable select index 115602
group select id ${select}
group select id 115602
1 atoms in group select
if "${inside} == 0" then     "group select delete"     "variable select delete"     "next n"     "jump SELF jump"
group select delete
variable select delete
next n
jump SELF jump
variable select index $(random(1,atoms,364500):%.0f)
variable select index 345247
group select id ${select}
group select id 345247
1 atoms in group select
if "${inside} == 0" then     "group select delete"     "variable select delete"     "next n"     "jump SELF jump"
group select delete
variable select delete
next n
jump SELF jump
variable select index $(random(1,atoms,364500):%.0f)
variable select index 13570
group select id ${select}
group select id 13570
1 atoms in group select
if "${inside} == 0" then     "group select delete"     "variable select delete"     "next n"     "jump SELF jump"
group select delete
variable select delete
next n
jump SELF jump
variable select index $(random(1,atoms,364500):%.0f)
variable select index 57514
group select id ${select}
group select id 57514
1 atoms in group select
if "${inside} == 0" then     "group select delete"     "variable select delete"     "next n"     "jump SELF jump"
group select delete
variable select delete
next n
jump SELF jump
variable select index $(random(1,atoms,364500):%.0f)
variable select index 124415
group select id ${select}
group select id 124415
1 atoms in group select
if "${inside} == 0" then     "group select delete"     "variable select delete"     "next n"     "jump SELF jump"
group select delete
variable select delete
next n
jump SELF jump
variable select index $(random(1,atoms,364500):%.0f)
variable select index 357663
group select id ${select}
group select id 357663
1 atoms in group select
if "${inside} == 0" then     "group select delete"     "variable select delete"     "next n"     "jump SELF jump"
group select delete
variable select delete
next n
jump SELF jump
variable select index $(random(1,atoms,364500):%.0f)
variable select index 32746
group select id ${select}
group select id 32746
1 atoms in group select
if "${inside} == 0" then     "group select delete"     "variable select delete"     "next n"     "jump SELF jump"
group select delete
variable select delete
next n
jump SELF jump
variable select index $(random(1,atoms,364500):%.0f)
variable select index 209741
group select id ${select}
group select id 209741
1 atoms in group select
if "${inside} == 0" then     "group select delete"     "variable select delete"     "next n"     "jump SELF jump"
group select delete
variable select delete
next n
jump SELF jump
variable select index $(random(1,atoms,364500):%.0f)
variable select index 89742
group select id ${select}
group select id 89742
1 atoms in group select
if "${inside} == 0" then     "group select delete"     "variable select delete"     "next n"     "jump SELF jump"
group select delete
variable select delete
next n
jump SELF jump
variable select index $(random(1,atoms,364500):%.0f)
variable select index 155001
group select id ${select}
group select id 155001
1 atoms in group select
if "${inside} == 0" then     "group select delete"     "variable select delete"     "next n"     "jump SELF jump"
group select delete
variable select delete
next n
jump SELF jump
variable select index $(random(1,atoms,364500):%.0f)
variable select index 250699
group select id ${select}
group select id 250699
1 atoms in group select
if "${inside} == 0" then     "group select delete"     "variable select delete"     "next n"     "jump SELF jump"
group select delete
variable select delete
next n
jump SELF jump
variable select index $(random(1,atoms,364500):%.0f)
variable select index 230767
group select id ${select}
group select id 230767
1 atoms in group select
if "${inside} == 0" then     "group select delete"     "variable select delete"     "next n"     "jump SELF jump"
group select delete
variable select delete
next n
jump SELF jump
variable select index $(random(1,atoms,364500):%.0f)
variable select index 301069
group select id ${select}
group select id 301069
1 atoms in group select
if "${inside} == 0" then     "group select delete"     "variable select delete"     "next n"     "jump SELF jump"
group select delete
variable select delete
next n
jump SELF jump
variable select index $(random(1,atoms,364500):%.0f)
variable select index 248153
group select id ${select}
group select id 248153
1 atoms in group select
if "${inside} == 0" then     "group select delete"     "variable select delete"     "next n"     "jump SELF jump"
group select delete
variable select delete
next n
jump SELF jump
variable select index $(random(1,atoms,364500):%.0f)
variable select index 18651
group select id ${select}
group select id 18651
1 atoms in group select
if "${inside} == 0" then     "group select delete"     "variable select delete"     "next n"     "jump SELF jump"
group select delete
variable select delete
next n
jump SELF jump
variable select index $(random(1,atoms,364500):%.0f)
variable select index 324291
group select id ${select}
group select id 324291
1 atoms in group select
if "${inside} == 0" then     "group select delete"     "variable select delete"     "next n"     "jump SELF jump"
group select delete
variable select delete
next n
jump SELF jump
variable select index $(random(1,atoms,364500):%.0f)
variable select index 115694
group select id ${select}
group select id 115694
1 atoms in group select
if "${inside} == 0" then     "group select delete"     "variable select delete"     "next n"     "jump SELF jump"
group select delete
variable select delete
next n
jump SELF jump
variable select index $(random(1,atoms,364500):%.0f)
variable select index 185272
group select id ${select}
group select id 185272
1 atoms in group select
if "${inside} == 0" then     "group select delete"     "variable select delete"     "next n"     "jump SELF jump"
group select delete
variable select delete
next n
jump SELF jump
variable select index $(random(1,atoms,364500):%.0f)
variable select index 192043
group select id ${select}
group select id 192043
1 atoms in group select
if "${inside} == 0" then     "group select delete"     "variable select delete"     "next n"     "jump SELF jump"
group select delete
variable select delete
next n
jump SELF jump
variable select index $(random(1,atoms,364500):%.0f)
variable select index 202279
group select id ${select}
group select id 202279
1 atoms in group select
if "${inside} == 0" then     "group select delete"     "variable select delete"     "next n"     "jump SELF jump"
group select delete
variable select delete
next n
jump SELF jump
variable select index $(random(1,atoms,364500):%.0f)
variable select index 38593
group select id ${select}
group select id 38593
1 atoms in group select
if "${inside} == 0" then     "group select delete"     "variable select delete"     "next n"     "jump SELF jump"
group select delete
variable select delete
next n
jump SELF jump
variable select index $(random(1,atoms,364500):%.0f)
variable select index 364452
group select id ${select}
group select id 364452
1 atoms in group select
if "${inside} == 0" then     "group select delete"     "variable select delete"     "next n"     "jump SELF jump"
group select delete
variable select delete
next n
jump SELF jump
variable select index $(random(1,atoms,364500):%.0f)
variable select index 190348
group select id ${select}
group select id 190348
1 atoms in group select
if "${inside} == 0" then     "group select delete"     "variable select delete"     "next n"     "jump SELF jump"
group select delete
variable select delete
next n
jump SELF jump
variable select index $(random(1,atoms,364500):%.0f)
variable select index 148990
group select id ${select}
group select id 148990
1 atoms in group select
if "${inside} == 0" then     "group select delete"     "variable select delete"     "next n"     "jump SELF jump"
group select delete
variable select delete
next n
jump SELF jump
variable select index $(random(1,atoms,364500):%.0f)
variable select index 155061
group select id ${select}
group select id 155061
1 atoms in group select
if "${inside} == 0" then     "group select delete"     "variable select delete"     "next n"     "jump SELF jump"
group select delete
variable select delete
next n
jump SELF jump
variable select index $(random(1,atoms,364500):%.0f)
variable select index 84580
group select id ${select}
group select id 84580
1 atoms in group select
if "${inside} == 0" then     "group select delete"     "variable select delete"     "next n"     "jump SELF jump"
group select delete
variable select delete
next n
jump SELF jump
variable select index $(random(1,atoms,364500):%.0f)
variable select index 240196
group select id ${select}
group select id 240196
1 atoms in group select
if "${inside} == 0" then     "group select delete"     "variable select delete"     "next n"     "jump SELF jump"
group select delete
variable select delete
next n
jump SELF jump
variable select index $(random(1,atoms,364500):%.0f)
variable select index 128624
group select id ${select}
group select id 128624
1 atoms in group select
if "${inside} == 0" then     "group select delete"     "variable select delete"     "next n"     "jump SELF jump"
group select delete
variable select delete
next n
jump SELF jump
variable select index $(random(1,atoms,364500):%.0f)
variable select index 133535
group select id ${select}
group select id 133535
1 atoms in group select
if "${inside} == 0" then     "group select delete"     "variable select delete"     "next n"     "jump SELF jump"
group select delete
variable select delete
next n
jump SELF jump
variable select index $(random(1,atoms,364500):%.0f)
variable select index 53163
group select id ${select}
group select id 53163
1 atoms in group select
if "${inside} == 0" then     "group select delete"     "variable select delete"     "next n"     "jump SELF jump"
group select delete
variable select delete
next n
jump SELF jump
variable select index $(random(1,atoms,364500):%.0f)
variable select index 213926
group select id ${select}
group select id 213926
1 atoms in group select
if "${inside} == 0" then     "group select delete"     "variable select delete"     "next n"     "jump SELF jump"
group select delete
variable select delete
next n
jump SELF jump
variable select index $(random(1,atoms,364500):%.0f)
variable select index 102024
group select id ${select}
group select id 102024
1 atoms in group select
if "${inside} == 0" then     "group select delete"     "variable select delete"     "next n"     "jump SELF jump"
group select delete
variable select delete
next n
jump SELF jump
variable select index $(random(1,atoms,364500):%.0f)
variable select index 18786
group select id ${select}
group select id 18786
1 atoms in group select
if "${inside} == 0" then     "group select delete"     "variable select delete"     "next n"     "jump SELF jump"
group select delete
variable select delete
next n
jump SELF jump
variable select index $(random(1,atoms,364500):%.0f)
variable select index 246811
group select id ${select}
group select id 246811
1 atoms in group select
if "${inside} == 0" then     "group select delete"     "variable select delete"     "next n"     "jump SELF jump"
group select delete
variable select delete
next n
jump SELF jump
variable select index $(random(1,atoms,364500):%.0f)
variable select index 38923
group select id ${select}
group select id 38923
1 atoms in group select
if "${inside} == 0" then     "group select delete"     "variable select delete"     "next n"     "jump SELF jump"
group select delete
variable select delete
next n
jump SELF jump
variable select index $(random(1,atoms,364500):%.0f)
variable select index 22460
group select id ${select}
group select id 22460
1 atoms in group select
if "${inside} == 0" then     "group select delete"     "variable select delete"     "next n"     "jump SELF jump"
group select delete
variable select delete
next n
jump SELF jump
variable select index $(random(1,atoms,364500):%.0f)
variable select index 340003
group select id ${select}
group select id 340003
1 atoms in group select
if "${inside} == 0" then     "group select delete"     "variable select delete"     "next n"     "jump SELF jump"
group select delete
variable select delete
next n
jump SELF jump
variable select index $(random(1,atoms,364500):%.0f)
variable select index 68820
group select id ${select}
group select id 68820
1 atoms in group select
if "${inside} == 0" then     "group select delete"     "variable select delete"     "next n"     "jump SELF jump"
group select delete
variable select delete
next n
jump SELF jump
variable select index $(random(1,atoms,364500):%.0f)
variable select index 333327
group select id ${select}
group select id 333327
1 atoms in group select
if "${inside} == 0" then     "group select delete"     "variable select delete"     "next n"     "jump SELF jump"
group select delete
variable select delete
next n
jump SELF jump
variable select index $(random(1,atoms,364500):%.0f)
variable select index 196651
group select id ${select}
group select id 196651
1 atoms in group select
if "${inside} == 0" then     "group select delete"     "variable select delete"     "next n"     "jump SELF jump"
group select delete
variable select delete
next n
jump SELF jump
variable select index $(random(1,atoms,364500):%.0f)
variable select index 175767
group select id ${select}
group select id 175767
1 atoms in group select
if "${inside} == 0" then     "group select delete"     "variable select delete"     "next n"     "jump SELF jump"
group select delete
variable select delete
next n
jump SELF jump
variable select index $(random(1,atoms,364500):%.0f)
variable select index 51927
group select id ${select}
group select id 51927
1 atoms in group select
if "${inside} == 0" then     "group select delete"     "variable select delete"     "next n"     "jump SELF jump"
group select delete
variable select delete
next n
jump SELF jump
variable select index $(random(1,atoms,364500):%.0f)
variable select index 12180
group select id ${select}
group select id 12180
1 atoms in group select
if "${inside} == 0" then     "group select delete"     "variable select delete"     "next n"     "jump SELF jump"
group select delete
variable select delete
next n
jump SELF jump
variable select index $(random(1,atoms,364500):%.0f)
variable select index 194290
group select id ${select}
group select id 194290
1 atoms in group select
if "${inside} == 0" then     "group select delete"     "variable select delete"     "next n"     "jump SELF jump"
group select delete
variable select delete
next n
jump SELF jump
variable select index $(random(1,atoms,364500):%.0f)
variable select index 191509
group select id ${select}
group select id 191509
1 atoms in group select
if "${inside} == 0" then     "group select delete"     "variable select delete"     "next n"     "jump SELF jump"
group select delete
variable select delete
next n
jump SELF jump
variable select index $(random(1,atoms,364500):%.0f)
variable select index 105769
group select id ${select}
group select id 105769
1 atoms in group select
if "${inside} == 0" then     "group select delete"     "variable select delete"     "next n"     "jump SELF jump"
group select delete
variable select delete
next n
jump SELF jump
variable select index $(random(1,atoms,364500):%.0f)
variable select index 293447
group select id ${select}
group select id 293447
1 atoms in group select
if "${inside} == 0" then     "group select delete"     "variable select delete"     "next n"     "jump SELF jump"
group select delete
variable select delete
next n
jump SELF jump
variable select index $(random(1,atoms,364500):%.0f)
variable select index 230358
group select id ${select}
group select id 230358
1 atoms in group select
if "${inside} == 0" then     "group select delete"     "variable select delete"     "next n"     "jump SELF jump"
group select delete
variable select delete
next n
jump SELF jump
variable select index $(random(1,atoms,364500):%.0f)
variable select index 81580
group select id ${select}
group select id 81580
1 atoms in group select
if "${inside} == 0" then     "group select delete"     "variable select delete"     "next n"     "jump SELF jump"
group select delete
variable select delete
next n
jump SELF jump
variable select index $(random(1,atoms,364500):%.0f)
variable select index 259804
group select id ${select}
group select id 259804
1 atoms in group select
if "${inside} == 0" then     "group select delete"     "variable select delete"     "next n"     "jump SELF jump"
group select delete
variable select delete
next n
jump SELF jump
variable select index $(random(1,atoms,364500):%.0f)
variable select index 80268
group select id ${select}
group select id 80268
1 atoms in group select
if "${inside} == 0" then     "group select delete"     "variable select delete"     "next n"     "jump SELF jump"
group select delete
variable select delete
next n
jump SELF jump
variable select index $(random(1,atoms,364500):%.0f)
variable select index 158409
group select id ${select}
group select id 158409
1 atoms in group select
if "${inside} == 0" then     "group select delete"     "variable select delete"     "next n"     "jump SELF jump"
group select delete
variable select delete
next n
jump SELF jump
variable select index $(random(1,atoms,364500):%.0f)
variable select index 51989
group select id ${select}
group select id 51989
1 atoms in group select
if "${inside} == 0" then     "group select delete"     "variable select delete"     "next n"     "jump SELF jump"
group select delete
variable select delete
next n
jump SELF jump
variable select index $(random(1,atoms,364500):%.0f)
variable select index 237211
group select id ${select}
group select id 237211
1 atoms in group select
if "${inside} == 0" then     "group select delete"     "variable select delete"     "next n"     "jump SELF jump"
group select delete
variable select delete
next n
jump SELF jump
variable select index $(random(1,atoms,364500):%.0f)
variable select index 83914
group select id ${select}
group select id 83914
1 atoms in group select
if "${inside} == 0" then     "group select delete"     "variable select delete"     "next n"     "jump SELF jump"
group select delete
variable select delete
next n
jump SELF jump
variable select index $(random(1,atoms,364500):%.0f)
variable select index 132179
group select id ${select}
group select id 132179
1 atoms in group select
if "${inside} == 0" then     "group select delete"     "variable select delete"     "next n"     "jump SELF jump"
group select delete
variable select delete
next n
jump SELF jump
variable select index $(random(1,atoms,364500):%.0f)
variable select index 261402
group select id ${select}
group select id 261402
1 atoms in group select
if "${inside} == 0" then     "group select delete"     "variable select delete"     "next n"     "jump SELF jump"
group select delete
variable select delete
next n
jump SELF jump
variable select index $(random(1,atoms,364500):%.0f)
variable select index 13554
group select id ${select}
group select id 13554
1 atoms in group select
if "${inside} == 0" then     "group select delete"     "variable select delete"     "next n"     "jump SELF jump"
group select delete
variable select delete
next n
jump SELF jump
variable select index $(random(1,atoms,364500):%.0f)
variable select index 320685
group select id ${select}
group select id 320685
1 atoms in group select
if "${inside} == 0" then     "group select delete"     "variable select delete"     "next n"     "jump SELF jump"
group select delete
variable select delete
next n
jump SELF jump
variable select index $(random(1,atoms,364500):%.0f)
variable select index 228097
group select id ${select}
group select id 228097
1 atoms in group select
if "${inside} == 0" then     "group select delete"     "variable select delete"     "next n"     "jump SELF jump"
group select delete
variable select delete
next n
jump SELF jump
variable select index $(random(1,atoms,364500):%.0f)
variable select index 82910
group select id ${select}
group select id 82910
1 atoms in group select
if "${inside} == 0" then     "group select delete"     "variable select delete"     "next n"     "jump SELF jump"
group select delete
variable select delete
next n
jump SELF jump
variable select index $(random(1,atoms,364500):%.0f)
variable select index 153726
group select id ${select}
group select id 153726
1 atoms in group select
if "${inside} == 0" then     "group select delete"     "variable select delete"     "next n"     "jump SELF jump"
group select delete
variable select delete
next n
jump SELF jump
variable select index $(random(1,atoms,364500):%.0f)
variable select index 289593
group select id ${select}
group select id 289593
1 atoms in group select
if "${inside} == 0" then     "group select delete"     "variable select delete"     "next n"     "jump SELF jump"
group select delete
variable select delete
next n
jump SELF jump
variable select index $(random(1,atoms,364500):%.0f)
variable select index 83891
group select id ${select}
group select id 83891
1 atoms in group select
if "${inside} == 0" then     "group select delete"     "variable select delete"     "next n"     "jump SELF jump"
group select delete
variable select delete
next n
jump SELF jump
variable select index $(random(1,atoms,364500):%.0f)
variable select index 200295
group select id ${select}
group select id 200295
1 atoms in group select
if "${inside} == 0" then     "group select delete"     "variable select delete"     "next n"     "jump SELF jump"
group select delete
variable select delete
next n
jump SELF jump
variable select index $(random(1,atoms,364500):%.0f)
variable select index 305438
group select id ${select}
group select id 305438
1 atoms in group select
if "${inside} == 0" then     "group select delete"     "variable select delete"     "next n"     "jump SELF jump"
group select delete
variable select delete
next n
jump SELF jump
variable select index $(random(1,atoms,364500):%.0f)
variable select index 354614
group select id ${select}
group select id 354614
1 atoms in group select
if "${inside} == 0" then     "group select delete"     "variable select delete"     "next n"     "jump SELF jump"
group select delete
variable select delete
next n
jump SELF jump
variable select index $(random(1,atoms,364500):%.0f)
variable select index 273486
group select id ${select}
group select id 273486
1 atoms in group select
if "${inside} == 0" then     "group select delete"     "variable select delete"     "next n"     "jump SELF jump"
group select delete
variable select delete
next n
jump SELF jump
variable select index $(random(1,atoms,364500):%.0f)
variable select index 305520
group select id ${select}
group select id 305520
1 atoms in group select
if "${inside} == 0" then     "group select delete"     "variable select delete"     "next n"     "jump SELF jump"
group select delete
variable select delete
next n
jump SELF jump
variable select index $(random(1,atoms,364500):%.0f)
variable select index 315690
group select id ${select}
group select id 315690
1 atoms in group select
if "${inside} == 0" then     "group select delete"     "variable select delete"     "next n"     "jump SELF jump"
group select delete
variable select delete
next n
jump SELF jump
variable select index $(random(1,atoms,364500):%.0f)
variable select index 80567
group select id ${select}
group select id 80567
1 atoms in group select
if "${inside} == 0" then     "group select delete"     "variable select delete"     "next n"     "jump SELF jump"
group select delete
variable select delete
next n
jump SELF jump
variable select index $(random(1,atoms,364500):%.0f)
variable select index 55067
group select id ${select}
group select id 55067
1 atoms in group select
if "${inside} == 0" then     "group select delete"     "variable select delete"     "next n"     "jump SELF jump"
group select delete
variable select delete
next n
jump SELF jump
variable select index $(random(1,atoms,364500):%.0f)
variable select index 325149
group select id ${select}
group select id 325149
1 atoms in group select
if "${inside} == 0" then     "group select delete"     "variable select delete"     "next n"     "jump SELF jump"
group select delete
variable select delete
next n
jump SELF jump
variable select index $(random(1,atoms,364500):%.0f)
variable select index 187938
group select id ${select}
group select id 187938
1 atoms in group select
if "${inside} == 0" then     "group select delete"     "variable select delete"     "next n"     "jump SELF jump"
group select delete
variable select delete
next n
jump SELF jump
variable select index $(random(1,atoms,364500):%.0f)
variable select index 99188
group select id ${select}
group select id 99188
1 atoms in group select
if "${inside} == 0" then     "group select delete"     "variable select delete"     "next n"     "jump SELF jump"
group select delete
variable select delete
next n
jump SELF jump
variable select index $(random(1,atoms,364500):%.0f)
variable select index 289179
group select id ${select}
group select id 289179
1 atoms in group select
if "${inside} == 0" then     "group select delete"     "variable select delete"     "next n"     "jump SELF jump"
group select delete
variable select delete
next n
jump SELF jump
variable select index $(random(1,atoms,364500):%.0f)
variable select index 210969
group select id ${select}
group select id 210969
1 atoms in group select
if "${inside} == 0" then     "group select delete"     "variable select delete"     "next n"     "jump SELF jump"
group select delete
variable select delete
next n
jump SELF jump
variable select index $(random(1,atoms,364500):%.0f)
variable select index 145645
group select id ${select}
group select id 145645
1 atoms in group select
if "${inside} == 0" then     "group select delete"     "variable select delete"     "next n"     "jump SELF jump"
group select delete
variable select delete
next n
jump SELF jump
variable select index $(random(1,atoms,364500):%.0f)
variable select index 259004
group select id ${select}
group select id 259004
1 atoms in group select
if "${inside} == 0" then     "group select delete"     "variable select delete"     "next n"     "jump SELF jump"
group select delete
variable select delete
next n
jump SELF jump
variable select index $(random(1,atoms,364500):%.0f)
variable select index 35765
group select id ${select}
group select id 35765
1 atoms in group select
if "${inside} == 0" then     "group select delete"     "variable select delete"     "next n"     "jump SELF jump"
group select delete
variable select delete
next n
jump SELF jump
variable select index $(random(1,atoms,364500):%.0f)
variable select index 233291
group select id ${select}
group select id 233291
1 atoms in group select
if "${inside} == 0" then     "group select delete"     "variable select delete"     "next n"     "jump SELF jump"
group select delete
variable select delete
next n
jump SELF jump
variable select index $(random(1,atoms,364500):%.0f)
variable select index 181832
group select id ${select}
group select id 181832
1 atoms in group select
if "${inside} == 0" then     "group select delete"     "variable select delete"     "next n"     "jump SELF jump"
group select delete
variable select delete
next n
jump SELF jump
variable select index $(random(1,atoms,364500):%.0f)
variable select index 277428
group select id ${select}
group select id 277428
1 atoms in group select
if "${inside} == 0" then     "group select delete"     "variable select delete"     "next n"     "jump SELF jump"
group select delete
variable select delete
next n
jump SELF jump
variable select index $(random(1,atoms,364500):%.0f)
variable select index 285218
group select id ${select}
group select id 285218
1 atoms in group select
if "${inside} == 0" then     "group select delete"     "variable select delete"     "next n"     "jump SELF jump"
group select delete
variable select delete
next n
jump SELF jump
variable select index $(random(1,atoms,364500):%.0f)
variable select index 180204
group select id ${select}
group select id 180204
1 atoms in group select
if "${inside} == 0" then     "group select delete"     "variable select delete"     "next n"     "jump SELF jump"
group select delete
variable select delete
next n
jump SELF jump
variable select index $(random(1,atoms,364500):%.0f)
variable select index 57863
group select id ${select}
group select id 57863
1 atoms in group select
if "${inside} == 0" then     "group select delete"     "variable select delete"     "next n"     "jump SELF jump"
group select delete
variable select delete
next n
jump SELF jump
variable select index $(random(1,atoms,364500):%.0f)
variable select index 318461
group select id ${select}
group select id 318461
1 atoms in group select
if "${inside} == 0" then     "group select delete"     "variable select delete"     "next n"     "jump SELF jump"
group select delete
variable select delete
next n
jump SELF jump
variable select index $(random(1,atoms,364500):%.0f)
variable select index 66303
group select id ${select}
group select id 66303
1 atoms in group select
if "${inside} == 0" then     "group select delete"     "variable select delete"     "next n"     "jump SELF jump"
group select delete
variable select delete
next n
jump SELF jump
variable select index $(random(1,atoms,364500):%.0f)
variable select index 341615
group select id ${select}
group select id 341615
1 atoms in group select
if "${inside} == 0" then     "group select delete"     "variable select delete"     "next n"     "jump SELF jump"
group select delete
variable select delete
next n
jump SELF jump
variable select index $(random(1,atoms,364500):%.0f)
variable select index 334443
group select id ${select}
group select id 334443
1 atoms in group select
if "${inside} == 0" then     "group select delete"     "variable select delete"     "next n"     "jump SELF jump"
group select delete
variable select delete
next n
jump SELF jump
variable select index $(random(1,atoms,364500):%.0f)
variable select index 214018
group select id ${select}
group select id 214018
1 atoms in group select
if "${inside} == 0" then     "group select delete"     "variable select delete"     "next n"     "jump SELF jump"
group select delete
variable select delete
next n
jump SELF jump
variable select index $(random(1,atoms,364500):%.0f)
variable select index 146920
group select id ${select}
group select id 146920
1 atoms in group select
if "${inside} == 0" then     "group select delete"     "variable select delete"     "next n"     "jump SELF jump"
group select delete
variable select delete
next n
jump SELF jump
variable select index $(random(1,atoms,364500):%.0f)
variable select index 142389
group select id ${select}
group select id 142389
1 atoms in group select
if "${inside} == 0" then     "group select delete"     "variable select delete"     "next n"     "jump SELF jump"
group select delete
variable select delete
next n
jump SELF jump
variable select index $(random(1,atoms,364500):%.0f)
variable select index 218649
group select id ${select}
group select id 218649
1 atoms in group select
if "${inside} == 0" then     "group select delete"     "variable select delete"     "next n"     "jump SELF jump"
group select delete
variable select delete
next n
jump SELF jump
variable select index $(random(1,atoms,364500):%.0f)
variable select index 137308
group select id ${select}
group select id 137308
1 atoms in group select
if "${inside} == 0" then     "group select delete"     "variable select delete"     "next n"     "jump SELF jump"
group select delete
variable select delete
next n
jump SELF jump
variable select index $(random(1,atoms,364500):%.0f)
variable select index 350829
group select id ${select}
group select id 350829
1 atoms in group select
if "${inside} == 0" then     "group select delete"     "variable select delete"     "next n"     "jump SELF jump"
group select delete
variable select delete
next n
jump SELF jump
variable select index $(random(1,atoms,364500):%.0f)
variable select index 232329
group select id ${select}
group select id 232329
1 atoms in group select
if "${inside} == 0" then     "group select delete"     "variable select delete"     "next n"     "jump SELF jump"
group select delete
variable select delete
next n
jump SELF jump
variable select index $(random(1,atoms,364500):%.0f)
variable select index 236135
group select id ${select}
group select id 236135
1 atoms in group select
if "${inside} == 0" then     "group select delete"     "variable select delete"     "next n"     "jump SELF jump"
group select delete
variable select delete
next n
jump SELF jump
variable select index $(random(1,atoms,364500):%.0f)
variable select index 162434
group select id ${select}
group select id 162434
1 atoms in group select
if "${inside} == 0" then     "group select delete"     "variable select delete"     "next n"     "jump SELF jump"
group select delete
variable select delete
next n
jump SELF jump
variable select index $(random(1,atoms,364500):%.0f)
variable select index 312377
group select id ${select}
group select id 312377
1 atoms in group select
if "${inside} == 0" then     "group select delete"     "variable select delete"     "next n"     "jump SELF jump"
group select delete
variable select delete
next n
jump SELF jump
variable select index $(random(1,atoms,364500):%.0f)
variable select index 239246
group select id ${select}
group select id 239246
1 atoms in group select
if "${inside} == 0" then     "group select delete"     "variable select delete"     "next n"     "jump SELF jump"
group select delete
variable select delete
next n
jump SELF jump
variable select index $(random(1,atoms,364500):%.0f)
variable select index 75912
group select id ${select}
group select id 75912
1 atoms in group select
if "${inside} == 0" then     "group select delete"     "variable select delete"     "next n"     "jump SELF jump"
group select delete
variable select delete
next n
jump SELF jump
variable select index $(random(1,atoms,364500):%.0f)
variable select index 100786
group select id ${select}
group select id 100786
1 atoms in group select
if "${inside} == 0" then     "group select delete"     "variable select delete"     "next n"     "jump SELF jump"
group select delete
variable select delete
next n
jump SELF jump
variable select index $(random(1,atoms,364500):%.0f)
variable select index 177289
group select id ${select}
group select id 177289
1 atoms in group select
if "${inside} == 0" then     "group select delete"     "variable select delete"     "next n"     "jump SELF jump"
group select delete
variable select delete
next n
jump SELF jump
variable select index $(random(1,atoms,364500):%.0f)
variable select index 181581
group select id ${select}
group select id 181581
1 atoms in group select
if "${inside} == 0" then     "group select delete"     "variable select delete"     "next n"     "jump SELF jump"
group select delete
variable select delete
next n
jump SELF jump
variable select index $(random(1,atoms,364500):%.0f)
variable select index 322296
group select id ${select}
group select id 322296
1 atoms in group select
if "${inside} == 0" then     "group select delete"     "variable select delete"     "next n"     "jump SELF jump"
group select delete
variable select delete
next n
jump SELF jump
variable select index $(random(1,atoms,364500):%.0f)
variable select index 326564
group select id ${select}
group select id 326564
1 atoms in group select
if "${inside} == 0" then     "group select delete"     "variable select delete"     "next n"     "jump SELF jump"
group select delete
variable select delete
next n
jump SELF jump
variable select index $(random(1,atoms,364500):%.0f)
variable select index 312810
group select id ${select}
group select id 312810
1 atoms in group select
if "${inside} == 0" then     "group select delete"     "variable select delete"     "next n"     "jump SELF jump"
group select delete
variable select delete
next n
jump SELF jump
variable select index $(random(1,atoms,364500):%.0f)
variable select index 269183
group select id ${select}
group select id 269183
1 atoms in group select
if "${inside} == 0" then     "group select delete"     "variable select delete"     "next n"     "jump SELF jump"
group select delete
variable select delete
next n
jump SELF jump
variable select index $(random(1,atoms,364500):%.0f)
variable select index 219492
group select id ${select}
group select id 219492
1 atoms in group select
if "${inside} == 0" then     "group select delete"     "variable select delete"     "next n"     "jump SELF jump"
group select delete
variable select delete
next n
jump SELF jump
variable select index $(random(1,atoms,364500):%.0f)
variable select index 33698
group select id ${select}
group select id 33698
1 atoms in group select
if "${inside} == 0" then     "group select delete"     "variable select delete"     "next n"     "jump SELF jump"
group select delete
variable select delete
next n
jump SELF jump
variable select index $(random(1,atoms,364500):%.0f)
variable select index 221633
group select id ${select}
group select id 221633
1 atoms in group select
if "${inside} == 0" then     "group select delete"     "variable select delete"     "next n"     "jump SELF jump"
group select delete
variable select delete
next n
jump SELF jump
variable select index $(random(1,atoms,364500):%.0f)
variable select index 187810
group select id ${select}
group select id 187810
1 atoms in group select
if "${inside} == 0" then     "group select delete"     "variable select delete"     "next n"     "jump SELF jump"
group select delete
variable select delete
next n
jump SELF jump
variable select index $(random(1,atoms,364500):%.0f)
variable select index 312482
group select id ${select}
group select id 312482
1 atoms in group select
if "${inside} == 0" then     "group select delete"     "variable select delete"     "next n"     "jump SELF jump"
group select delete
variable select delete
next n
jump SELF jump
variable select index $(random(1,atoms,364500):%.0f)
variable select index 235317
group select id ${select}
group select id 235317
1 atoms in group select
if "${inside} == 0" then     "group select delete"     "variable select delete"     "next n"     "jump SELF jump"
group select delete
variable select delete
next n
jump SELF jump
variable select index $(random(1,atoms,364500):%.0f)
variable select index 312789
group select id ${select}
group select id 312789
1 atoms in group select
if "${inside} == 0" then     "group select delete"     "variable select delete"     "next n"     "jump SELF jump"
group select delete
variable select delete
next n
jump SELF jump
variable select index $(random(1,atoms,364500):%.0f)
variable select index 117032
group select id ${select}
group select id 117032
1 atoms in group select
if "${inside} == 0" then     "group select delete"     "variable select delete"     "next n"     "jump SELF jump"
group select delete
variable select delete
next n
jump SELF jump
variable select index $(random(1,atoms,364500):%.0f)
variable select index 224657
group select id ${select}
group select id 224657
1 atoms in group select
if "${inside} == 0" then     "group select delete"     "variable select delete"     "next n"     "jump SELF jump"
group select delete
variable select delete
next n
jump SELF jump
variable select index $(random(1,atoms,364500):%.0f)
variable select index 110155
group select id ${select}
group select id 110155
1 atoms in group select
if "${inside} == 0" then     "group select delete"     "variable select delete"     "next n"     "jump SELF jump"
group select delete
variable select delete
next n
jump SELF jump
variable select index $(random(1,atoms,364500):%.0f)
variable select index 206248
group select id ${select}
group select id 206248
1 atoms in group select
if "${inside} == 0" then     "group select delete"     "variable select delete"     "next n"     "jump SELF jump"
group select delete
variable select delete
next n
jump SELF jump
variable select index $(random(1,atoms,364500):%.0f)
variable select index 218847
group select id ${select}
group select id 218847
1 atoms in group select
if "${inside} == 0" then     "group select delete"     "variable select delete"     "next n"     "jump SELF jump"
group select delete
variable select delete
next n
jump SELF jump
variable select index $(random(1,atoms,364500):%.0f)
variable select index 115902
group select id ${select}
group select id 115902
1 atoms in group select
if "${inside} == 0" then     "group select delete"     "variable select delete"     "next n"     "jump SELF jump"
group select delete
variable select delete
next n
jump SELF jump
variable select index $(random(1,atoms,364500):%.0f)
variable select index 218890
group select id ${select}
group select id 218890
1 atoms in group select
if "${inside} == 0" then     "group select delete"     "variable select delete"     "next n"     "jump SELF jump"
group select delete
variable select delete
next n
jump SELF jump
variable select index $(random(1,atoms,364500):%.0f)
variable select index 296729
group select id ${select}
group select id 296729
1 atoms in group select
if "${inside} == 0" then     "group select delete"     "variable select delete"     "next n"     "jump SELF jump"
group select delete
variable select delete
next n
jump SELF jump
variable select index $(random(1,atoms,364500):%.0f)
variable select index 54051
group select id ${select}
group select id 54051
1 atoms in group select
if "${inside} == 0" then     "group select delete"     "variable select delete"     "next n"     "jump SELF jump"
group select delete
variable select delete
next n
jump SELF jump
variable select index $(random(1,atoms,364500):%.0f)
variable select index 229789
group select id ${select}
group select id 229789
1 atoms in group select
if "${inside} == 0" then     "group select delete"     "variable select delete"     "next n"     "jump SELF jump"
group select delete
variable select delete
next n
jump SELF jump
variable select index $(random(1,atoms,364500):%.0f)
variable select index 239454
group select id ${select}
group select id 239454
1 atoms in group select
[...]
Neighs:    5.84081e+06 ave  5.9236e+06 max 5.73502e+06 min
Histogram: 1 0 0 1 0 0 0 0 1 1

Total # of neighbors = 23363233
Ave neighs/atom = 64.096661
Neighbor list builds = 32
Dangerous builds = 0
if '$(time)>25' then 'write_data NiCoCrFe_pka_5keV_final.lmp' 'quit' 
No /omp style for force computation currently active
Per MPI rank memory allocation (min/avg/max) = 80.42 | 80.74 | 80.85 Mbytes
     Time         Step          Temp          Press          TotEng    
 11.304676          11000   364.71859     -26357.585     -1554645.1    
 11.459693          11100   363.5738      -26319.073     -1554645.1    
 11.613345          11200   362.98009     -26259.366     -1554645.1    
 11.77095           11300   363.04282     -26322.548     -1554645.1    
 11.926765          11400   364.82895     -26373.441     -1554645.1    
 12.082156          11500   365.78772     -26472.069     -1554645.1    
 12.235839          11600   364.87424     -26414.497     -1554645.1    
 12.38792           11700   363.74082     -26341.508     -1554645.1    
 12.544054          11800   364.00433     -26364.759     -1554645.1    
 12.70169           11900   363.30619     -26329.292     -1554645.1    
 12.860604          12000   363.0991      -26357.276     -1554645.1    
Loop time of 448.325 on 16 procs for 1000 steps with 364500 atoms

Performance: 0.322 ns/day, 74.547 hours/ns, 2.231 timesteps/s, 813.026 katom-step/s
90.4% CPU use with 4 MPI tasks x 4 OpenMP threads

MPI task timing breakdown:
Section |  min time  |  avg time  |  max time  |%varavg| %total
---------------------------------------------------------------
Pair    | 393.06     | 396.16     | 400.14     |  14.1 | 88.36
Neigh   | 4.6211     | 4.6588     | 4.689      |   1.1 |  1.04
Comm    | 32.016     | 36.045     | 39.229     |  47.4 |  8.04
Output  | 0.323      | 0.34569    | 0.36845    |   2.9 |  0.08
Modify  | 9.2817     | 9.3195     | 9.3546     |   0.9 |  2.08
Other   |            | 1.8        |            |       |  0.40

Nlocal:          91125 ave       93459 max       89206 min
Histogram: 1 0 1 0 0 1 0 0 0 1
Nghost:        40026.8 ave       41935 max       37702 min
Histogram: 1 0 0 0 1 0 0 1 0 1
Neighs:    5.83625e+06 ave 6.01878e+06 max 5.68582e+06 min
Histogram: 1 0 1 0 0 1 0 0 0 1

Total # of neighbors = 23345010
Ave neighs/atom = 64.046667
Neighbor list builds = 33
Dangerous builds = 0
if '$(time)>25' then 'write_data NiCoCrFe_pka_5keV_final.lmp' 'quit' 
No /omp style for force computation currently active
Per MPI rank memory allocation (min/avg/max) = 80.82 | 80.85 | 80.87 Mbytes
     Time         Step          Temp          Press          TotEng    
 12.860604          12000   363.0991      -26357.276     -1554645.1    
 13.014868          12100   364.18054     -26414.869     -1554645.1    
 13.169287          12200   364.00924     -26335.56      -1554645.1    
 13.321944          12300   363.44028     -26335.475     -1554645.1    
 13.480674          12400   363.80866     -26314.923     -1554645.1    
 13.640104          12500   365.02763     -26402.953     -1554645.1    
 13.796606          12600   365.60026     -26476.953     -1554645.2    
 13.950516          12700   364.3146      -26391.698     -1554645.1    
 14.106817          12800   363.54343     -26347.019     -1554645.1    
 14.264297          12900   363.81902     -26371.68      -1554645.2    
 14.421797          13000   363.6562      -26380.616     -1554645.2    
Loop time of 441.116 on 16 procs for 1000 steps with 364500 atoms

Performance: 0.328 ns/day, 73.145 hours/ns, 2.267 timesteps/s, 826.314 katom-step/s
90.3% CPU use with 4 MPI tasks x 4 OpenMP threads

MPI task timing breakdown:
Section |  min time  |  avg time  |  max time  |%varavg| %total
---------------------------------------------------------------
Pair    | 386.08     | 388.86     | 391.29     |  12.3 | 88.15
Neigh   | 4.5047     | 4.5632     | 4.5979     |   1.8 |  1.03
Comm    | 33.7       | 36.211     | 38.887     |  40.2 |  8.21
Output  | 0.33416    | 0.35801    | 0.38121    |   2.9 |  0.08
Modify  | 9.198      | 9.3202     | 9.4282     |   3.1 |  2.11
Other   |            | 1.802      |            |       |  0.41

Nlocal:          91125 ave       93080 max       89924 min
Histogram: 1 1 0 1 0 0 0 0 0 1
Nghost:        40023.8 ave       41222 max       38068 min
Histogram: 1 0 0 0 0 0 1 0 1 1
Neighs:    5.83888e+06 ave 6.00616e+06 max 5.73512e+06 min
Histogram: 2 0 0 0 1 0 0 0 0 1

Total # of neighbors = 23355503
Ave neighs/atom = 64.075454
Neighbor list builds = 32
Dangerous builds = 0
if '$(time)>25' then 'write_data NiCoCrFe_pka_5keV_final.lmp' 'quit' 
No /omp style for force computation currently active
Per MPI rank memory allocation (min/avg/max) = 80.82 | 80.86 | 80.88 Mbytes
     Time         Step          Temp          Press          TotEng    
 14.421797          13000   363.6562      -26380.616     -1554645.2    
 14.576742          13100   364.65124     -26428.651     -1554645.2    
 14.734884          13200   364.20737     -26411.781     -1554645.2    
 14.894458          13300   364.54999     -26392.378     -1554645.2    
 15.056336          13400   364.15266     -26348.981     -1554645.1    
 15.21058           13500   363.74608     -26332.016     -1554645.1    
 15.364242          13600   363.87516     -26348.343     -1554645.2    
 15.521068          13700   364.71388     -26394.162     -1554645.2    
 15.674671          13800   364.64998     -26371.443     -1554645.2    
 15.826809          13900   363.49506     -26308.344     -1554645.1    
 15.982482          14000   364.21059     -26421.759     -1554645.2    
Loop time of 456.609 on 16 procs for 1000 steps with 364500 atoms

Performance: 0.301 ns/day, 79.690 hours/ns, 2.190 timesteps/s, 798.276 katom-step/s
90.0% CPU use with 4 MPI tasks x 4 OpenMP threads

MPI task timing breakdown:
Section |  min time  |  avg time  |  max time  |%varavg| %total
---------------------------------------------------------------
Pair    | 400.85     | 403.12     | 404.3      |   6.7 | 88.28
Neigh   | 4.5887     | 4.6674     | 4.7429     |   2.6 |  1.02
Comm    | 36.22      | 37.379     | 39.667     |  22.0 |  8.19
Output  | 0.30727    | 0.33078    | 0.35377    |   3.0 |  0.07
Modify  | 9.2171     | 9.3324     | 9.4261     |   2.6 |  2.04
Other   |            | 1.783      |            |       |  0.39

Nlocal:          91125 ave       93131 max       89769 min
Histogram: 2 0 0 0 0 1 0 0 0 1
Nghost:        40032.2 ave       41371 max       38048 min
Histogram: 1 0 0 0 1 0 0 0 0 2
Neighs:    5.83851e+06 ave 5.99208e+06 max 5.73321e+06 min
Histogram: 2 0 0 0 0 1 0 0 0 1

Total # of neighbors = 23354051
Ave neighs/atom = 64.071471
Neighbor list builds = 33
Dangerous builds = 0
if '$(time)>25' then 'write_data NiCoCrFe_pka_5keV_final.lmp' 'quit' 
No /omp style for force computation currently active
Per MPI rank memory allocation (min/avg/max) = 80.82 | 80.86 | 80.88 Mbytes
     Time         Step          Temp          Press          TotEng    
 15.982482          14000   364.21059     -26421.759     -1554645.2    
 16.134246          14100   363.39238     -26355.598     -1554645.1    
 16.291103          14200   364.32964     -26421.627     -1554645.2    
 16.447594          14300   365.06919     -26454         -1554645.2    
 16.602758          14400   365.50226     -26501.149     -1554645.1    
 16.759674          14500   364.18468     -26375.438     -1554645.1    
 16.918918          14600   362.96152     -26296.166     -1554645.1    
 17.07552           14700   364.02701     -26296.375     -1554645.2    
 17.231687          14800   364.25843     -26371.188     -1554645.1    
 17.38704           14900   364.19186     -26379.746     -1554645.1    
 17.546197          15000   363.51232     -26306.774     -1554645.1    
Loop time of 621.351 on 16 procs for 1000 steps with 364500 atoms

Performance: 0.216 ns/day, 111.209 hours/ns, 1.609 timesteps/s, 586.625 katom-step/s
87.9% CPU use with 4 MPI tasks x 4 OpenMP threads

MPI task timing breakdown:
Section |  min time  |  avg time  |  max time  |%varavg| %total
---------------------------------------------------------------
Pair    | 554.53     | 560.81     | 567.74     |  21.5 | 90.26
Neigh   | 4.3787     | 4.4345     | 4.5853     |   4.1 |  0.71
Comm    | 36.44      | 43.109     | 49.028     |  74.2 |  6.94
Output  | 0.48975    | 0.58361    | 0.7018     |  10.2 |  0.09
Modify  | 10.056     | 10.127     | 10.172     |   1.4 |  1.63
Other   |            | 2.288      |            |       |  0.37

Nlocal:          91125 ave       92301 max       89909 min
Histogram: 1 1 0 0 0 0 0 0 1 1
Nghost:        40020.8 ave       41237 max       38845 min
Histogram: 1 1 0 0 0 0 0 0 1 1
Neighs:    5.84154e+06 ave 5.95194e+06 max 5.73023e+06 min
Histogram: 1 1 0 0 0 0 0 0 1 1

Total # of neighbors = 23366156
Ave neighs/atom = 64.10468
Neighbor list builds = 32
Dangerous builds = 0
if '$(time)>25' then 'write_data NiCoCrFe_pka_5keV_final.lmp' 'quit' 
No /omp style for force computation currently active
Per MPI rank memory allocation (min/avg/max) = 80.82 | 80.86 | 80.88 Mbytes
     Time         Step          Temp          Press          TotEng    
 17.546197          15000   363.51232     -26306.774     -1554645.1    
 17.699072          15100   364.13715     -26328.999     -1554645.1    
 17.852542          15200   364.69169     -26432.607     -1554645.1    
 18.008104          15300   363.93409     -26440.88      -1554645.1    
 18.164201          15400   364.73695     -26424.318     -1554645.1    
 18.321699          15500   364.8314      -26395.694     -1554645.1    
 18.471557          15600   363.95986     -26365.569     -1554645.1    
 18.622206          15700   362.89505     -26234.187     -1554645      
 18.777706          15800   363.45142     -26286.07      -1554645.1    
 18.934908          15900   363.5986      -26311.992     -1554645.1    
 19.093366          16000   364.90376     -26457.052     -1554645.1    
Loop time of 551.026 on 16 procs for 1000 steps with 364500 atoms

Performance: 0.240 ns/day, 100.025 hours/ns, 1.815 timesteps/s, 661.494 katom-step/s
90.3% CPU use with 4 MPI tasks x 4 OpenMP threads

MPI task timing breakdown:
Section |  min time  |  avg time  |  max time  |%varavg| %total
---------------------------------------------------------------
Pair    | 492.55     | 495.44     | 498.65     |   9.8 | 89.91
Neigh   | 4.3642     | 4.4906     | 4.6217     |   5.1 |  0.81
Comm    | 35.703     | 39.103     | 42.076     |  36.5 |  7.10
Output  | 0.39118    | 0.42322    | 0.45621    |   3.7 |  0.08
Modify  | 9.5325     | 9.6778     | 9.7411     |   2.7 |  1.76
Other   |            | 1.891      |            |       |  0.34

Nlocal:          91125 ave       92225 max       89802 min
Histogram: 1 0 1 0 0 0 0 0 0 2
Nghost:        40028.2 ave       41338 max       38934 min
Histogram: 2 0 0 0 0 0 0 1 0 1
Neighs:    5.84248e+06 ave 5.93303e+06 max 5.73072e+06 min
Histogram: 1 0 0 1 0 0 0 0 1 1

Total # of neighbors = 23369936
Ave neighs/atom = 64.115051
Neighbor list builds = 33
Dangerous builds = 0
if '$(time)>25' then 'write_data NiCoCrFe_pka_5keV_final.lmp' 'quit' 
No /omp style for force computation currently active
Per MPI rank memory allocation (min/avg/max) = 80.82 | 80.86 | 80.88 Mbytes
     Time         Step          Temp          Press          TotEng    
 19.093366          16000   364.90376     -26457.052     -1554645.1    
 19.249234          16100   364.72118     -26368.19      -1554645.1    
 19.408496          16200   364.16624     -26353.073     -1554645.1    
 19.566259          16300   364.50382     -26397.647     -1554645.1    
 19.724841          16400   364.36568     -26396.289     -1554645.1    
 19.878867          16500   364.06688     -26373.665     -1554645.1    
 20.034355          16600   364.65961     -26414.096     -1554645.1    
 20.186526          16700   363.75623     -26307.455     -1554645.1    
 20.342375          16800   363.99416     -26352.356     -1554645.1    
 20.502161          16900   363.42383     -26305.295     -1554645.1    
 20.64982           17000   365.02621     -26456.609     -1554645.1    
Loop time of 543.91 on 16 procs for 1000 steps with 364500 atoms

Performance: 0.258 ns/day, 93.072 hours/ns, 1.839 timesteps/s, 670.148 katom-step/s
91.2% CPU use with 4 MPI tasks x 4 OpenMP threads

MPI task timing breakdown:
Section |  min time  |  avg time  |  max time  |%varavg| %total
---------------------------------------------------------------
Pair    | 482.55     | 488.32     | 491.06     |  15.6 | 89.78
Neigh   | 3.8534     | 3.9648     | 4.0776     |   4.3 |  0.73
Comm    | 36.96      | 39.714     | 45.519     |  54.8 |  7.30
Output  | 0.4882     | 0.52433    | 0.55919    |   3.6 |  0.10
Modify  | 9.598      | 9.6194     | 9.6452     |   0.7 |  1.77
Other   |            | 1.768      |            |       |  0.32

Nlocal:          91125 ave       91661 max       90330 min
Histogram: 1 0 0 0 1 0 0 0 0 2
Nghost:          40024 ave       40817 max       39494 min
Histogram: 2 0 0 0 0 1 0 0 0 1
Neighs:    5.84144e+06 ave 5.91071e+06 max 5.75698e+06 min
Histogram: 1 0 0 1 0 0 0 0 1 1

Total # of neighbors = 23365779
Ave neighs/atom = 64.103646
Neighbor list builds = 33
Dangerous builds = 0
if '$(time)>25' then 'write_data NiCoCrFe_pka_5keV_final.lmp' 'quit' 
No /omp style for force computation currently active
Per MPI rank memory allocation (min/avg/max) = 80.82 | 80.86 | 80.88 Mbytes
     Time         Step          Temp          Press          TotEng    
 20.64982           17000   365.02621     -26456.609     -1554645.1    
 20.802678          17100   365.09454     -26461.075     -1554645.1    
 20.960419          17200   364.38646     -26416.931     -1554645.1    
 21.118564          17300   364.36069     -26348.343     -1554645.1    
 21.275684          17400   364.89884     -26453.283     -1554645.1    
 21.432916          17500   363.35634     -26322.978     -1554645      
 21.591748          17600   363.32165     -26300.153     -1554645.1    
 21.748872          17700   364.28215     -26368.296     -1554645.1    
 21.903397          17800   364.61333     -26403.826     -1554645.1    
 22.059753          17900   364.16431     -26383.786     -1554645      
 22.215288          18000   363.93767     -26356.581     -1554645      
Loop time of 598.286 on 16 procs for 1000 steps with 364500 atoms

Performance: 0.221 ns/day, 108.604 hours/ns, 1.671 timesteps/s, 609.241 katom-step/s
89.5% CPU use with 4 MPI tasks x 4 OpenMP threads

MPI task timing breakdown:
Section |  min time  |  avg time  |  max time  |%varavg| %total
---------------------------------------------------------------
Pair    | 536.92     | 540.27     | 543.42     |  11.5 | 90.30
Neigh   | 4.4462     | 4.4852     | 4.5945     |   3.0 |  0.75
Comm    | 38.108     | 41.246     | 44.626     |  42.5 |  6.89
Output  | 0.4057     | 0.44727    | 0.48165    |   4.2 |  0.07
Modify  | 9.8702     | 9.9226     | 9.945      |   1.0 |  1.66
Other   |            | 1.915      |            |       |  0.32

Nlocal:          91125 ave       91544 max       90361 min
Histogram: 1 0 0 0 0 0 0 1 1 1
Nghost:        40024.2 ave       40782 max       39605 min
Histogram: 1 1 1 0 0 0 0 0 0 1
Neighs:    5.84212e+06 ave 5.86896e+06 max 5.78248e+06 min
Histogram: 1 0 0 0 0 0 0 0 1 2

Total # of neighbors = 23368492
Ave neighs/atom = 64.111089
Neighbor list builds = 32
Dangerous builds = 0
if '$(time)>25' then 'write_data NiCoCrFe_pka_5keV_final.lmp' 'quit' 
No /omp style for force computation currently active
Per MPI rank memory allocation (min/avg/max) = 80.82 | 80.86 | 80.88 Mbytes
     Time         Step          Temp          Press          TotEng    
 22.215288          18000   363.93767     -26356.581     -1554645      
 22.367916          18100   363.69354     -26372.19      -1554645.1    
 22.52445           18200   364.56092     -26394.537     -1554645      
 22.678294          18300   364.37221     -26453.786     -1554645      
 22.834358          18400   364.28299     -26410.316     -1554645.1    
 22.989929          18500   363.11264     -26271.546     -1554645      
 23.146825          18600   363.16794     -26254.438     -1554645.1    
 23.301285          18700   363.45567     -26359.42      -1554645      
 23.4588            18800   364.06565     -26343.085     -1554645      
 23.608397          18900   365.31152     -26412.519     -1554645.1    
 23.763139          19000   365.26033     -26485.261     -1554645.1    
Loop time of 558.671 on 16 procs for 1000 steps with 364500 atoms

Performance: 0.241 ns/day, 99.464 hours/ns, 1.790 timesteps/s, 652.441 katom-step/s
90.7% CPU use with 4 MPI tasks x 4 OpenMP threads

MPI task timing breakdown:
Section |  min time  |  avg time  |  max time  |%varavg| %total
---------------------------------------------------------------
Pair    | 495.46     | 502        | 508        |  22.7 | 89.86
Neigh   | 4.1642     | 4.2654     | 4.3276     |   3.0 |  0.76
Comm    | 34.53      | 40.497     | 47.086     |  79.5 |  7.25
Output  | 0.40473    | 0.43094    | 0.45652    |   2.9 |  0.08
Modify  | 9.6607     | 9.6709     | 9.6775     |   0.2 |  1.73
Other   |            | 1.807      |            |       |  0.32

Nlocal:          91125 ave       91404 max       90787 min
Histogram: 1 0 0 0 1 0 0 1 0 1
Nghost:        40021.5 ave       40362 max       39742 min
Histogram: 1 0 1 0 0 1 0 0 0 1
Neighs:    5.84498e+06 ave 5.87167e+06 max 5.80636e+06 min
Histogram: 1 0 0 0 0 0 2 0 0 1

Total # of neighbors = 23379919
Ave neighs/atom = 64.142439
Neighbor list builds = 33
Dangerous builds = 0
if '$(time)>25' then 'write_data NiCoCrFe_pka_5keV_final.lmp' 'quit' 
No /omp style for force computation currently active
Per MPI rank memory allocation (min/avg/max) = 80.82 | 80.86 | 80.88 Mbytes
     Time         Step          Temp          Press          TotEng    
 23.763139          19000   365.26033     -26485.261     -1554645.1    
 23.921387          19100   364.32661     -26405.227     -1554645.1    
 24.078541          19200   363.85784     -26344.036     -1554645      
 24.236024          19300   363.73121     -26305.062     -1554645.1    
 24.391644          19400   363.43188     -26289.152     -1554645.1    
 24.545755          19500   364.05779     -26355.158     -1554645.1    
 24.70348           19600   363.75417     -26368.679     -1554645      
 24.858754          19700   363.57238     -26313.987     -1554645      
 25.015957          19800   364.10913     -26332.361     -1554645      
 25.172848          19900   364.57423     -26383.52      -1554645      
 25.330374          20000   364.50139     -26388.041     -1554645      
Loop time of 549.052 on 16 procs for 1000 steps with 364500 atoms

Performance: 0.256 ns/day, 93.809 hours/ns, 1.821 timesteps/s, 663.872 katom-step/s
90.3% CPU use with 4 MPI tasks x 4 OpenMP threads

MPI task timing breakdown:
Section |  min time  |  avg time  |  max time  |%varavg| %total
---------------------------------------------------------------
Pair    | 484.57     | 491.17     | 496.62     |  19.4 | 89.46
Neigh   | 4.3778     | 4.4547     | 4.5582     |   3.3 |  0.81
Comm    | 36.049     | 41.49      | 48.014     |  66.3 |  7.56
Output  | 0.37734    | 0.40798    | 0.43846    |   3.6 |  0.07
Modify  | 9.6325     | 9.6934     | 9.806      |   2.2 |  1.77
Other   |            | 1.836      |            |       |  0.33

Nlocal:          91125 ave       91213 max       91079 min
Histogram: 2 0 0 1 0 0 0 0 0 1
Nghost:          40022 ave       40066 max       39938 min
Histogram: 1 0 0 0 0 0 1 0 0 2
Neighs:    5.84432e+06 ave 5.86631e+06 max 5.82689e+06 min
Histogram: 1 1 0 0 0 0 1 0 0 1

Total # of neighbors = 23377265
Ave neighs/atom = 64.135158
Neighbor list builds = 33
Dangerous builds = 0
if '$(time)>25' then 'write_data NiCoCrFe_pka_5keV_final.lmp' 'quit' 
write_data NiCoCrFe_pka_5keV_final.lmp
System init for write_data ...
No /omp style for force computation currently active
quit
