LAMMPS (2 Aug 2023 - Update 2)
OMP_NUM_THREADS environment is not set. Defaulting to 1 thread. (src/comm.cpp:98)
  using 1 OpenMP thread(s) per MPI task
Loaded 1 plugins from C:\Users\Ratish Panda\AppData\Local\LAMMPS 64-bit 2Aug2023-MSMPI with Python\plugins
# Tensile Test Simulation in LAMMPS

# Initialize
units metal
boundary p p p
atom_style atomic

# Specify the number of OpenMP threads
package omp 4
set 4 OpenMP thread(s) per MPI task
using multi-threaded neighbor list subroutines

# Read data file (output from previous steps)
read_data Ni_relaxed.lmp
Reading data file ...
  orthogonal box = (-0.013463769 -0.013463769 -0.013463769) to (158.41346 158.41346 158.41346)
  1 by 2 by 2 MPI processor grid
  reading atoms ...
  364500 atoms
  reading velocities ...
  364500 velocities
  read_data CPU = 2.567 seconds

# Define potential (EAM potential for Nickel)
pair_style eam/alloy
pair_coeff * * FeNiCrCoCu-with-ZBL.eam.alloy Ni

neighbor	 1 bin
neigh_modify every 1 delay 0 check yes

#--------------------------
# Store final cell length for strain calculations
variable tmp equal "lx"
variable L0 equal ${tmp}
variable L0 equal 158.426927538228
print "Initial Length, L0: ${L0}"
Initial Length, L0: 158.426927538228

reset_timestep 0
timestep 0.01

fix 1 all npt temp 300 300 1 x 0 0 1 y 0 0 1 drag 1
variable srate equal 2.0e9
variable srate1 equal "v_srate / 1.0e12" # adjusting strain rate unit from per second to per picosecond
fix 2 all deform 1 z erate ${srate1} units box remap x
fix 2 all deform 1 z erate 0.002 units box remap x

# Output strain and stress info to file
# for units metal, pressure is in [bars] = 100 [kPa] = 1/10000 [GPa]
# p2, p3, p4 are in GPa
variable strain equal "(lz - v_L0)/v_L0"
variable p1 equal "v_strain"
variable p2 equal "-pxx/10000"
variable p3 equal "-pyy/10000"
variable p4 equal "-pzz/10000"
fix def1 all print 10 "${p1} ${p2} ${p3} ${p4}" file Ni_Tensile_Unirradiated.def1.txt screen no

# dumping data
dump 1 all custom 1000 dump.Ni_Tensile_Unirradiated_*.dump id type x y z
dump_modify 1 sort id

# Display thermo
thermo 100
thermo_style custom time step v_strain temp v_p2 v_p3 v_p4 ke pe press

# run tensile test for 100 ps
run 10000
No /omp style for force computation currently active
Neighbor list info ...
  update: every = 1 steps, delay = 0 steps, check = yes
  max neighbors/atom: 2000, page size: 100000
  master list distance cutoff = 6.80375
  ghost atom cutoff = 6.80375
  binsize = 3.401875, bins = 47 47 47
  1 neighbor lists, perpetual/occasional/extra = 1 0 0
  (1) pair eam/alloy, perpetual
      attributes: half, newton on, omp
      pair build: half/bin/atomonly/newton/omp
      stencil: half/bin/3d
      bin: standard
Per MPI rank memory allocation (min/avg/max) = 65.68 | 65.68 | 65.68 Mbytes
     Time         Step        v_strain         Temp           v_p2           v_p3           v_p4          KinEng         PotEng         Press     
 0                      0   1.2557964e-15  299.94822     -0.16647381    -0.75083875     0.055578861    14132.119     -1622024.1      2872.4457    
 1                    100   0.002          299.4938      -0.0063008115   0.0010712659   0.66292591     14110.709     -1621978.8     -2192.3212    
 2                    200   0.004          300.26343      0.0030650537   0.00016518627  0.97674432     14146.97      -1621955.4     -3266.5819    
 3                    300   0.006          300.44513      0.00079731513  0.0020970284   1.3061857      14155.531     -1621915.8     -4363.6002    
 4                    400   0.008          300.38406      0.00099842733  0.00021524441  1.6557508      14152.653     -1621859.7     -5523.215     
 5                    500   0.01           300.33908     -8.4541243e-05  0.00019073384  2.0240542      14150.534     -1621785.5     -6747.2014    
 6                    600   0.012          300.32901      0.00035135374 -4.2849786e-05  2.4096014      14150.06      -1621692.6     -8033.0331    
 7                    700   0.014          300.32186      0.00040422593  0.00029314776  2.8094323      14149.722     -1621580.3     -9367.0988    
 8                    800   0.016          300.31482      0.00041957754  0.00033736175  3.220976       14149.391     -1621448       -10739.11     
 9                    900   0.018          300.3086       0.00040279815  0.00022634288  3.6416291      14149.098     -1621295.2     -12140.861    
 10                  1000   0.02           300.3016       0.00040916411  0.00018313281  4.0684957      14148.768     -1621121.6     -13563.627    
 11                  1100   0.022          300.29145      0.0004477949   0.00019576008  4.4972227      14148.29      -1620926.8     -14992.888    
 12                  1200   0.024          300.27832      0.00049491024  0.00018572615  4.9244655      14147.671     -1620710.7     -16417.154    
 13                  1300   0.026          300.26219      0.0005469543   0.00013144235  5.3474199      14146.911     -1620473.4     -17826.994    
 14                  1400   0.028          300.23819      0.00062546926  6.5874822e-05  5.7617165      14145.78      -1620215       -19208.026    
 15                  1500   0.03           300.20467      0.0007980386  -2.3124288e-05  6.1628917      14144.201     -1619935.4     -20545.555    
 16                  1600   0.032          300.15613      0.0012038141  -0.00025041438  6.5448216      14141.914     -1619634.8     -21819.25     
 17                  1700   0.034          300.07429      0.0022433343  -0.0007643762   6.8960241      14138.058     -1619312.7     -22991.677    
 18                  1800   0.036          299.91125      0.0073797474  -0.003394774    7.1865701      14130.377     -1618967.1     -23968.517    
 19                  1900   0.038          299.54142      0.025641952   -0.013436863    7.3212355      14112.952     -1618594.4     -24444.802    
 20                  2000   0.04           299.49509      0.0040078302  -0.00096554206  7.4002906      14110.769     -1618218.2     -24677.776    
 21                  2100   0.042          299.9699       0.0020525177  -0.00049043939  7.669221       14133.14      -1617856.5     -25569.277    
 22                  2200   0.044          300.15882      0.0011045913  -0.00011224322  7.9532577      14142.041     -1617485.5     -26514.167    
 23                  2300   0.046          300.15762      0.00082903735 -8.4584801e-05  8.2349652      14141.985     -1617103.1     -27452.366    
 24                  2400   0.048          300.12436      0.00064492265 -2.4862299e-05  8.5095352      14140.417     -1616708.9     -28367.184    
 25                  2500   0.05           300.12138      0.00054629677  1.1594696e-06  8.7814342      14140.277     -1616302.7     -29273.272    
 26                  2600   0.052          300.13244      0.00048002936  2.0081095e-05  9.0485451      14140.798     -1615884.6     -30163.484    
 27                  2700   0.054          300.14054      0.00044707972  3.6231399e-05  9.3139236      14141.18      -1615454.7     -31048.023    
 28                  2800   0.056          300.14229      0.00040668293  4.2873443e-05  9.582023       14141.262     -1615012.7     -31941.575    
 29                  2900   0.058          300.14319      0.00038650528  5.3132875e-05  9.8522386      14141.304     -1614558.6     -32842.261    
 30                  3000   0.06           300.14424      0.00037263684  7.1106867e-05  10.123961      14141.354     -1614092.1     -33748.015    
 31                  3100   0.062          300.14453      0.0003560688   7.2441e-05     10.396714      14141.368     -1613613.3     -34657.141    
 32                  3200   0.064          300.14445      0.00033480778  6.9157664e-05  10.670116      14141.364     -1613122.1     -35568.399    
 33                  3300   0.066          300.14414      0.0003276903   7.0981523e-05  10.94392       14141.349     -1612618.4     -36481.064    
 34                  3400   0.068          300.14361      0.00031388101  7.0813379e-05  11.217784      14141.324     -1612102.3     -37393.897    
 35                  3500   0.07           300.14299      0.00031139217  7.9246964e-05  11.491496      14141.295     -1611573.7     -38306.289    
 36                  3600   0.072          300.14177      0.00029728848  7.5158441e-05  11.76475       14141.237     -1611032.6     -39217.073    
 37                  3700   0.074          300.14065      0.00029388561  7.2649242e-05  12.037427      14141.185     -1610479.2     -40125.978    
 38                  3800   0.076          300.13908      0.00028540549  7.5328714e-05  12.309252      14141.111     -1609913.4     -41032.042    
 39                  3900   0.078          300.13791      0.00028722378  7.7793919e-05  12.580043      14141.056     -1609335.2     -41934.692    
 40                  4000   0.08           300.13628      0.00028038561  7.8062192e-05  12.849662      14140.979     -1608744.8     -42833.403    
 41                  4100   0.082          300.13386      0.00027121967  6.6923304e-05  13.117924      14140.865     -1608142.1     -43727.54     
 42                  4200   0.084          300.13177      0.00026904607  6.3653686e-05  13.384593      14140.766     -1607527.4     -44616.42     
 43                  4300   0.086          300.13002      0.00027525011  6.8728198e-05  13.649492      14140.684     -1606900.6     -45499.453    
 44                  4400   0.088          300.12768      0.00027116922  7.1227796e-05  13.912415      14140.574     -1606261.8     -46375.859    
 45                  4500   0.09           300.1249       0.00026388189  5.8382212e-05  14.173182      14140.443     -1605611.1     -47245.014    
 46                  4600   0.092          300.12205      0.00026645787  6.1603847e-05  14.431623      14140.308     -1604948.7     -48106.505    
 47                  4700   0.094          300.1196       0.0002662553   5.9045655e-05  14.689096      14140.193     -1604274.7     -48964.736    
 48                  4800   0.096          300.1163       0.00026498637  4.6575959e-05  14.94753       14140.037     -1603589       -49826.14     
 49                  4900   0.098          300.11324      0.00026771741  5.1143395e-05  15.206746      14139.893     -1602891.6     -50690.215    
 50                  5000   0.1            300.1095       0.00026112737  3.4890268e-05  15.46649       14139.717     -1602182.4     -51555.952    
 51                  5100   0.102          300.1061       0.00027179276  4.3869534e-05  15.726633      14139.557     -1601461.5     -52423.163    
 52                  5200   0.104          300.10203      0.00026583163  2.4842782e-05  15.986827      14139.365     -1600728.8     -53290.391    
 53                  5300   0.106          300.09862      0.0002775319   3.2745423e-05  16.246901      14139.204     -1599984.4     -54157.372    
 54                  5400   0.108          300.09354      0.00027025359  1.1796342e-05  16.506573      14138.965     -1599228.1     -55022.85     
 55                  5500   0.11           300.08913      0.00027725967  7.876824e-06   16.765592      14138.758     -1598460.1     -55886.258    
 56                  5600   0.112          300.08475      0.00028573289  9.9184066e-06  17.023682      14138.551     -1597680.4     -56746.593    
 57                  5700   0.114          300.07948      0.00028065021 -1.1636866e-05  17.280537      14138.303     -1596889       -57602.686    
 58                  5800   0.116          300.07439      0.00029223986 -1.282863e-05   17.535869      14138.063     -1596086       -58453.83     
 59                  5900   0.118          300.0693       0.00030019273 -1.5960335e-05  17.789335      14137.823     -1595271.5     -59298.73     
 60                  6000   0.12           300.06292      0.00029515097 -3.9489934e-05  18.040619      14137.522     -1594445.5     -60136.248    
 61                  6100   0.122          300.05716      0.00030608309 -4.5847473e-05  18.289323      14137.251     -1593608.1     -60965.277    
 62                  6200   0.124          300.05111      0.00031554425 -5.1463647e-05  18.535166      14136.966     -1592759.5     -61784.768    
 63                  6300   0.126          300.04457      0.00032388411 -6.5887796e-05  18.777722      14136.658     -1591899.8     -62593.266    
 64                  6400   0.128          300.03789      0.00032967708 -8.1393596e-05  19.016584      14136.343     -1591029.1     -63389.441    
 65                  6500   0.13           300.03115      0.0003428762  -8.4919259e-05  19.251447      14136.026     -1590147.6     -64172.351    
 66                  6600   0.132          300.02369      0.00034962373 -0.00010218345  19.48183       14135.674     -1589255.4     -64940.259    
 67                  6700   0.134          300.0167       0.00036857479 -0.00011403693  19.707349      14135.345     -1588352.9     -65692.011    
 68                  6800   0.136          300.00886      0.00037709019 -0.00013152085  19.927551      14134.976     -1587440.2     -66425.988    
 69                  6900   0.138          300.00051      0.00038162336 -0.00014887947  20.14209       14134.582     -1586517.4     -67141.074    
 70                  7000   0.14           299.99262      0.00040422045 -0.0001658623   20.350478      14134.211     -1585585       -67835.72     
 71                  7100   0.142          299.98434      0.0004171703  -0.00018149023  20.552379      14133.82      -1584643.2     -68508.715    
 72                  7200   0.144          299.97562      0.00043160566 -0.00019989315  20.74729       14133.409     -1583692.2     -69158.407    
 73                  7300   0.146          299.96725      0.0004535826  -0.00021699323  20.935002      14133.015     -1582732.4     -69784.129    
 74                  7400   0.148          299.9582       0.00047439575 -0.00023814216  21.115036      14132.589     -1581764.1     -70384.242    
 75                  7500   0.15           299.94909      0.00048956199 -0.00026090041  21.287175      14132.159     -1580787.7     -70958.011    
 76                  7600   0.152          299.93984      0.00050509236 -0.00028091966  21.451106      14131.724     -1579803.4     -71504.435    
 77                  7700   0.154          299.93086      0.00053770806 -0.00031216118  21.606734      14131.3       -1578811.8     -72023.198    
 78                  7800   0.156          299.92157      0.00055894797 -0.00033966093  21.753972      14130.863     -1577813.2     -72513.972    
 79                  7900   0.158          299.91255      0.00057804483 -0.00035516005  21.892551      14130.438     -1576808       -72975.912    
 80                  8000   0.16           299.90362      0.00061357532 -0.00038800984  22.022809      14130.017     -1575796.5     -73410.116    
 81                  8100   0.162          299.89532      0.00064915589 -0.00040869262  22.144747      14129.626     -1574779.3     -73816.624    
 82                  8200   0.164          299.88621      0.00069178175 -0.00045273776  22.258568      14129.197     -1573756.5     -74196.025    
 83                  8300   0.166          299.87746      0.00072291191 -0.00048392161  22.36518       14128.784     -1572728.7     -74551.396    
 84                  8400   0.168          299.87078      0.000745462   -0.00049109269  22.470512      14128.47      -1571696.1     -74902.555    
 85                  8500   0.17           299.8645       0.00081026017 -0.00054738036  22.576826      14128.174     -1570658.9     -75256.962    
 86                  8600   0.172          299.85801      0.0008393676  -0.00056575526  22.684541      14127.868     -1569616.8     -75616.047    
 87                  8700   0.174          299.85224      0.00090509756 -0.00062129088  22.794661      14127.596     -1568569.9     -75983.149    
 88                  8800   0.176          299.84633      0.00098039353 -0.00068477046  22.907592      14127.318     -1567518.2     -76359.626    
 89                  8900   0.178          299.84095      0.0010650918  -0.00074036511  23.024094      14127.064     -1566461.4     -76748.064    
 90                  9000   0.18           299.82852      0.0012408139  -0.00087035825  23.140681      14126.479     -1565399.2     -77136.837    
 91                  9100   0.182          299.80731      0.001561712   -0.0011159739   23.252597      14125.479     -1564331.3     -77510.141    
 92                  9200   0.184          299.77748      0.0019693465  -0.0014086112   23.355356      14124.074     -1563257.5     -77853.056    
 93                  9300   0.186          299.73276      0.0030139026  -0.0022476829   23.44038       14121.967     -1562177.9     -78137.154    
 94                  9400   0.188          299.65413      0.0047052006  -0.0035251739   23.479158      14118.263     -1561092.3     -78267.794    
 95                  9500   0.19           299.51438      0.0091157484  -0.0068545908   23.422943      14111.678     -1560001.5     -78084.015    
 96                  9600   0.192          299.19366      0.065001091   -0.044140271    23.036243      14096.567     -1558911       -76857.014    
 97                  9700   0.194          462.25184      2.1663125     -0.80458049     12.645483      21779.085     -1572206.5     -46690.718    
 98                  9800   0.196          530.58206      0.19807692    -0.11797464     4.1628642      24998.477     -1578789.5     -14143.222    
 99                  9900   0.198          532.43645      0.010812513   -0.013769359    2.5682953      25085.846     -1580985.2     -8551.1282    
 100                10000   0.2            520.31291      0.021811482   -0.010583177    1.9697303      24514.643     -1582477       -6603.1954    
Loop time of 2365.29 on 16 procs for 10000 steps with 364500 atoms

Performance: 3.653 ns/day, 6.570 hours/ns, 4.228 timesteps/s, 1.541 Matom-step/s
104.4% CPU use with 4 MPI tasks x 4 OpenMP threads

MPI task timing breakdown:
Section |  min time  |  avg time  |  max time  |%varavg| %total
---------------------------------------------------------------
Pair    | 1930       | 1942.4     | 1952.3     |  18.8 | 82.12
Neigh   | 104.17     | 104.62     | 105.09     |   3.5 |  4.42
Comm    | 56.036     | 65.888     | 77.929     |  99.1 |  2.79
Output  | 2.5436     | 2.7678     | 2.9938     |  10.1 |  0.12
Modify  | 233.09     | 233.47     | 233.76     |   1.6 |  9.87
Other   |            | 16.13      |            |       |  0.68

Nlocal:          91125 ave       91238 max       90859 min
Histogram: 1 0 0 0 0 0 0 0 1 2
Nghost:        42556.8 ave       42901 max       42397 min
Histogram: 2 0 1 0 0 0 0 0 0 1
Neighs:    5.64848e+06 ave 5.67974e+06 max 5.61471e+06 min
Histogram: 1 0 0 1 0 0 0 1 0 1

Total # of neighbors = 22593924
Ave neighs/atom = 61.986074
Neighbor list builds = 837
Dangerous builds = 0

# write output data
write_data Ni_Unirradiated_Strained.lmp
System init for write_data ...
No /omp style for force computation currently active

# end of simulation
print "Tensile test simulation completed."
Tensile test simulation completed.


Total wall time: 0:39:29
