LAMMPS (2 Aug 2023 - Update 2)
OMP_NUM_THREADS environment is not set. Defaulting to 1 thread. (src/comm.cpp:98)
  using 1 OpenMP thread(s) per MPI task
Loaded 1 plugins from C:\Users\Ratish Panda\AppData\Local\LAMMPS 64-bit 2Aug2023-MSMPI with Python\plugins
# Tensile Test Simulation in LAMMPS with irradiated + relaxed file as input

# Initialize
units metal
boundary p p p
atom_style atomic

# Specify the number of OpenMP threads
package omp 4
set 4 OpenMP thread(s) per MPI task
using multi-threaded neighbor list subroutines

# Read data file (output from previous steps)
read_data NiCoCrFe_5KeV_Relaxed.lmp
Reading data file ...
  orthogonal box = (1.2258581 1.2258581 1.2258581) to (161.22414 161.22414 161.22414)
  1 by 2 by 2 MPI processor grid
  reading atoms ...
  364500 atoms
  reading velocities ...
  364500 velocities
  read_data CPU = 4.182 seconds

# Define potential (EAM potential for Nickel)
pair_style eam/alloy
pair_coeff * * FeNiCrCoCu-heafixed.setfl Ni Co Cr Fe

neighbor	 1 bin
neigh_modify every 1 delay 0 check yes

# Define timesteps
reset_timestep 0
timestep 0.01

#--------------------------
# Store final cell length for strain calculations
variable tmp equal "lx"
variable L0 equal ${tmp}
variable L0 equal 159.998283762281
print "Initial Length, L0: ${L0}"
Initial Length, L0: 159.998283762281

fix 1 all npt temp 300 300 1 x 0 0 1 y 0 0 1 drag 1
variable srate equal 2.0e9
variable srate1 equal "v_srate / 1.0e12" # adjusting strain rate unit from per second to per picosecond
fix 2 all deform 1 z erate ${srate1} units box remap x
fix 2 all deform 1 z erate 0.002 units box remap x

# Output strain and stress info to file
# for units metal, pressure is in [bars] = 100 [kPa] = 1/10000 [GPa]
# p2, p3, p4 are in GPa
variable strain equal "(lz - v_L0)/v_L0"
variable p1 equal "v_strain"
variable p2 equal "-pxx/10000"
variable p3 equal "-pyy/10000"
variable p4 equal "-pzz/10000"
fix def1 all print 10 "${p1} ${p2} ${p3} ${p4}" file Ni_Tensile_5KeV.def1.txt screen no

# dumping data
dump 1 all custom 1000 dump.NiCoCrFe_Tensile_5KeV_*.dump id type x y z
dump_modify 1 sort id

# Display thermo
thermo 100
thermo_style custom time step v_strain temp v_p2 v_p3 v_p4 ke pe press

# run tensile test for 100 ps
run 10000
No /omp style for force computation currently active
Neighbor list info ...
  update: every = 1 steps, delay = 0 steps, check = yes
  max neighbors/atom: 2000, page size: 100000
  master list distance cutoff = 6.80375
  ghost atom cutoff = 6.80375
  binsize = 3.401875, bins = 48 48 48
  1 neighbor lists, perpetual/occasional/extra = 1 0 0
  (1) pair eam/alloy, perpetual
      attributes: half, newton on, omp
      pair build: half/bin/atomonly/newton/omp
      stencil: half/bin/3d
      bin: standard
Per MPI rank memory allocation (min/avg/max) = 65.46 | 65.47 | 65.47 Mbytes
     Time         Step        v_strain         Temp           v_p2           v_p3           v_p4          KinEng         PotEng         Press     
 0                      0   1.7763759e-16  300.19034      0.015375915    0.013835581    0.0099282515   14143.526     -1575652.9     -130.46583    
 1                    100   0.002          300.55954      0.021581746    0.012274547    0.2878939      14160.921     -1575654.4     -1072.5007    
 2                    200   0.004          299.81736     -0.020600701   -0.0082412574   0.52926434     14125.953     -1575589       -1668.0746    
 3                    300   0.006          300.12654      0.0085462797  -0.0016180183   0.80834251     14140.52      -1575549.3     -2717.5692    
 4                    400   0.008          299.6772      -0.0091767411  -0.001358064    1.0645673      14119.349     -1575451.7     -3513.4417    
 5                    500   0.01           299.98271      0.0057410884   0.017146442    1.3467232      14133.744     -1575372.1     -4565.3691    
 6                    600   0.012          299.97818     -0.0016776928   0.0042689709   1.6060181      14133.53      -1575261.3     -5362.0312    
 7                    700   0.014          299.67445      0.00073844808  0.0043920371   1.866892       14119.22      -1575122.6     -6240.075     
 8                    800   0.016          300.02428      0.0041747106   0.0057666816   2.1293139      14135.702     -1575002.5     -7130.8509    
 9                    900   0.018          299.8722      -0.0050549515  -0.0087988478   2.3849134      14128.537     -1574842.1     -7903.5319    
 10                  1000   0.02           299.58915     -0.0095526151  -0.0027000921   2.6420649      14115.201     -1574664.3     -8766.0407    
 11                  1100   0.022          299.87576      0.010820817    0.0019612306   2.9085971      14128.705     -1574498.3     -9737.9306    
 12                  1200   0.024          299.56651     -0.0043791174   0.002533725    3.1482615      14114.134     -1574291.5     -10488.054    
 13                  1300   0.026          299.75745     -0.014608895   -0.0017535635   3.4002819      14123.13      -1574095.8     -11279.732    
 14                  1400   0.028          299.94918     -0.011571898   -0.014103825    3.643832       14132.164     -1573888       -12060.521    
 15                  1500   0.03           299.70701     -0.0034127401  -0.0036919707   3.8972363      14120.754     -1573646.7     -12967.105    
 16                  1600   0.032          299.41556      0.0063013507   0.014835519    4.1407378      14107.022     -1573388.7     -13872.916    
 17                  1700   0.034          299.64323     -0.0013936764  -0.0089918489   4.3785906      14117.749     -1573145.4     -14560.684    
 18                  1800   0.036          299.38569     -0.0081201465  -0.0070723519   4.6176307      14105.615     -1572868.4     -15341.461    
 19                  1900   0.038          300.04569      0.012076172    0.010114186    4.8593124      14136.711     -1572622.8     -16271.676    
 20                  2000   0.04           299.55553     -0.0041555738  -0.012367526    5.0758579      14113.617     -1572311.3     -16864.449    
 21                  2100   0.042          299.95692      0.018331497    0.0038818335   5.3227152      14132.528     -1572032.3     -17816.429    
 22                  2200   0.044          299.71255      0.004703738    0.006972912    5.5486434      14121.015     -1571710.4     -18534.4      
 23                  2300   0.046          299.43146     -0.0077799722  -0.0081334502   5.7596827      14107.771     -1571376.1     -19145.898    
 24                  2400   0.048          299.79351     -0.010081205   -0.0015784685   5.9846255      14124.829     -1571062.9     -19909.886    
 25                  2500   0.05           299.4406       0.00041703789  0.0045454527   6.2186837      14108.202     -1570703.2     -20745.487    
 26                  2600   0.052          300.00837      0.001185616   -0.0048800586   6.4274429      14134.952     -1570380.2     -21412.495    
 27                  2700   0.054          299.57826      0.013032509    0.010195618    6.6687294      14114.688     -1569994.9     -22306.525    
 28                  2800   0.056          300.00876     -0.0069032032  -0.011271688    6.8577908      14134.971     -1569645.9     -22798.72     
 29                  2900   0.058          299.28842      0.0028998733   0.0040147133   7.0860507      14101.032     -1569226.5     -23643.218    
 30                  3000   0.06           299.76602      0.0013799353   0.0012322885   7.3138854      14123.534     -1568857.6     -24388.326    
 31                  3100   0.062          300.10464      0.024737812    0.028300674    7.5453888      14139.488     -1568470.7     -25328.091    
 32                  3200   0.064          299.80899      0.031163716    0.035557027    7.7700925      14125.559     -1568043.5     -26122.711    
 33                  3300   0.066          299.49802      0.007751378    0.013666811    7.9758063      14110.907     -1567603.8     -26657.415    
 34                  3400   0.068          299.3576      -0.017928013   -0.0084615377   8.1762081      14104.291     -1567161.6     -27166.062    
 35                  3500   0.07           299.86452     -0.016294456   -0.016628075    8.3849412      14128.175     -1566745.4     -27840.062    
 36                  3600   0.072          299.21709     -0.0042239663   0.0048110914   8.6167594      14097.671     -1566259.3     -28724.488    
 37                  3700   0.074          299.52273      0.013718582    0.012662234    8.8449324      14112.071     -1565809.8     -29571.044    
 38                  3800   0.076          299.91846     -0.005561996   -0.0068761797   9.053849       14130.717     -1565355.6     -30138.036    
 39                  3900   0.078          300.07158      0.0024350642  -0.002864416    9.2671739      14137.931     -1564878.9     -30889.148    
 40                  4000   0.08           299.30917     -0.0085320805   0.0015239066   9.4940765      14102.01      -1564346.6     -31623.561    
 41                  4100   0.082          299.86462      0.011496138    0.0024056444   9.7293894      14128.179     -1563868.1     -32477.637    
 42                  4200   0.084          299.8128       0.01344847     0.017679422    9.9422988      14125.738     -1563351.5     -33244.756    
 43                  4300   0.086          299.4938      -0.003950887    0.0025383516   10.163364      14110.708     -1562809.6     -33873.172    
 44                  4400   0.088          299.73579     -0.0011321426  -0.0077437692   10.383056      14122.11      -1562284       -34580.601    
 45                  4500   0.09           299.39871      0.0065633066   0.0036319424   10.60711       14106.228     -1561720.7     -35391.018    
 46                  4600   0.092          299.70829     -0.02460689    -0.030171554    10.820746      14120.814     -1561178       -35886.559    
 47                  4700   0.094          299.42892      1.9215329e-05  0.0079684229   11.066481      14107.651     -1560597       -36914.895    
 48                  4800   0.096          299.95075      0.00048838587  0.0037304037   11.286541      14132.237     -1560041.9     -37635.865    
 49                  4900   0.098          299.72218     -0.017183448   -0.010770353    11.51433       14121.469     -1559441.4     -38287.92     
 50                  5000   0.1            299.32568      0.021172009    0.024013201    11.765086      14102.788     -1558820.3     -39367.57     
 51                  5100   0.102          300.01978      0.0082740427   0.0045373729   11.981814      14135.49      -1558241.6     -39982.085    
 52                  5200   0.104          299.71001      0.0032704969   0.00091744042  12.211217      14120.895     -1557601.8     -40718.017    
 53                  5300   0.106          299.22868      0.0035241845   0.00062385593  12.443765      14098.217     -1556943.6     -41493.044    
 54                  5400   0.108          299.78894     -0.022538948   -0.02621523     12.659861      14124.614     -1556325.7     -42037.022    
 55                  5500   0.11           299.3583      -0.015861947   -0.0064331391   12.901889      14104.324     -1555647.7     -42931.98     
 56                  5600   0.112          299.69031     -0.0036972162  -0.0096147769   13.143861      14119.967     -1554995.9     -43768.497    
 57                  5700   0.114          298.71265     -0.023771348   -0.026168501    13.366235      14073.904     -1554266.1     -44387.65     
 58                  5800   0.116          299.48695     -0.0018645349  -0.0068723668   13.621705      14110.386     -1553612.7     -45376.559    
 59                  5900   0.118          299.03354     -0.0065319954  -0.0075059919   13.854981      14089.023     -1552886.8     -46136.478    
 60                  6000   0.12           299.48521     -0.0057626865  -0.0075113406   14.097302      14110.304     -1552195.7     -46946.76     
 61                  6100   0.122          299.40862      0.015010471    0.0085186694   14.348516      14106.695     -1551465.9     -47906.817    
 62                  6200   0.124          298.85096     -0.016069593   -0.0098322198   14.570372      14080.421     -1550700.5     -48481.569    
 63                  6300   0.126          298.88766      0.01745499     0.020824154    14.818567      14082.15      -1549954       -49522.822    
 64                  6400   0.128          299.33072     -0.014198587   -0.011030807    15.062867      14103.025     -1549213.7     -50125.457    
 65                  6500   0.13           298.9806       0.010268671    0.0066122404   15.2952        14086.529     -1548423.8     -51040.27     
 66                  6600   0.132          299.59142      0.0018893136   0.010059       15.510267      14115.308     -1547667.7     -51740.719    
 67                  6700   0.134          300.90958      0.0017287169   0.017197173    15.674145      14177.413     -1546951.9     -52310.236    
 68                  6800   0.136          303.36035     -0.023832802   -0.0066337198   15.69153       14292.881     -1546346.7     -52203.546    
 69                  6900   0.138          312.96956      0.02225342     0.014254575    15.311771      14745.622     -1546165.9     -51160.929    
 70                  7000   0.14           337.08983     -0.014828612   -0.0043643465   14.017481      15882.053     -1546862.4     -46660.96     
 71                  7100   0.142          382.08365      0.0087504703   0.031385855    11.244715      18001.945     -1548948.9     -37616.171    
 72                  7200   0.144          434.47803     -0.0020681732   0.030522396    7.9207928      20470.516     -1551985.5     -26497.49     
 73                  7300   0.146          463.43208     -0.013376872    0.042092057    4.9305266      21834.692     -1554469.1     -16530.806    
 74                  7400   0.148          467.12829      0.0083083913   0.029750576    3.3461041      22008.84      -1556022.3     -11280.543    
 75                  7500   0.15           465.57399      0.0093361274  -0.011700791    2.8736886      21935.608     -1557381.5     -9571.0798    
 76                  7600   0.152          458.01202      0.053206724    0.049798319    2.729177       21579.325     -1558416.7     -9440.6069    
 77                  7700   0.154          447.78855      0.0029036683   0.005582757    2.6974733      21097.644     -1559253.5     -9019.8657    
 78                  7800   0.156          438.82319      0.015513858    0.0083072866   2.6513858      20675.24      -1560062.1     -8917.3565    
 79                  7900   0.158          431.55456     -0.025662213   -0.027966442    2.5413024      20332.777     -1560884.8     -8292.2458    
 80                  8000   0.16           421.97791     -0.032643674   -0.022801305    2.5402167      19881.571     -1561520.1     -8282.5724    
 81                  8100   0.162          414.3666      -0.010293364    0.0044336345   2.5698054      19522.962     -1562174.1     -8546.4857    
 82                  8200   0.164          405.88712     -0.0054373341  -0.011746102    2.6634809      19123.45      -1562710.7     -8820.9914    
 83                  8300   0.166          397.63039     -0.012672438   -0.013171831    2.6792625      18734.433     -1563179.9     -8844.7276    
 84                  8400   0.168          390.13258      0.0095965598   0.00029391102  2.7491792      18381.172     -1563617.2     -9196.899     
 85                  8500   0.17           383.30913      0.022477319   -0.0071070641   2.851511       18059.684     -1564020.7     -9556.271     
 86                  8600   0.172          376.09611     -0.01970915    -0.029373609    2.9194276      17719.841     -1564336       -9567.816     
 87                  8700   0.174          370.0741      -9.2897004e-05  0.0066077126   2.9494675      17436.113     -1564659.1     -9853.2743    
 88                  8800   0.176          364.58335      0.0051294904  -0.010421405    3.053464       17177.415     -1564954.8     -10160.573    
 89                  8900   0.178          359.38066     -0.010378554   -0.011379019    3.0336722      16932.289     -1565215.9     -10039.715    
 90                  9000   0.18           355.76929     -0.012431292    0.0093241962   3.0800145      16762.139     -1565517.3     -10256.358    
 91                  9100   0.182          350.29757      0.019309177   -0.0050261914   3.2006031      16504.338     -1565681.1     -10716.287    
 92                  9200   0.184          346.34802      0.0017629989  -0.0019656921   3.3011208      16318.254     -1565876.3     -11003.06     
 93                  9300   0.186          342.25909      0.012796722    0.018251619    3.3375063      16125.604     -1566022.9     -11228.516    
 94                  9400   0.188          338.76882      0.011015341    0.019345032    3.327543       15961.159     -1566164       -11193.011    
 95                  9500   0.19           336.56567      0.0034591575  -0.014204679    3.3338038      15857.357     -1566339.5     -11076.861    
 96                  9600   0.192          333.42943     -0.0041363526   0.0073135108   3.3849915      15709.592     -1566441       -11293.896    
 97                  9700   0.194          330.57464     -0.014008342   -0.010001417    3.3651405      15575.088     -1566534       -11137.102    
 98                  9800   0.196          328.66965      0.010784856    0.018681191    3.3770569      15485.334     -1566649.1     -11355.076    
 99                  9900   0.198          326.17603      0.0021699911   0.0094109756   3.3715056      15367.847     -1566715       -11276.955    
 100                10000   0.2            324.31781     -0.0027283952   0.0078460479   3.3331494      15280.296     -1566792.4     -11127.557    
Loop time of 5951.26 on 16 procs for 10000 steps with 364500 atoms

Performance: 1.452 ns/day, 16.531 hours/ns, 1.680 timesteps/s, 612.475 katom-step/s
91.5% CPU use with 4 MPI tasks x 4 OpenMP threads

MPI task timing breakdown:
Section |  min time  |  avg time  |  max time  |%varavg| %total
---------------------------------------------------------------
Pair    | 4954.1     | 4969.5     | 4978.9     |  14.1 | 83.50
Neigh   | 351.21     | 352.52     | 353.32     |   4.4 |  5.92
Comm    | 295.01     | 304.66     | 321.18     |  59.9 |  5.12
Output  | 4.7172     | 5.1267     | 5.5374     |  13.4 |  0.09
Modify  | 294.28     | 295.05     | 295.68     |   2.9 |  4.96
Other   |            | 24.44      |            |       |  0.41

Nlocal:          91125 ave       91268 max       90866 min
Histogram: 1 0 0 0 0 0 1 0 0 2
Nghost:        43911.8 ave       44045 max       43762 min
Histogram: 1 0 0 0 1 0 1 0 0 1
Neighs:    5.69267e+06 ave 5.72301e+06 max  5.6482e+06 min
Histogram: 1 0 0 0 0 0 1 1 0 1

Total # of neighbors = 22770686
Ave neighs/atom = 62.471018
Neighbor list builds = 1999
Dangerous builds = 0

# write output data
write_data NiCoCrFe_5KeV_Strained.lmp
System init for write_data ...
No /omp style for force computation currently active

# end of simulation
print "Tensile test simulation completed."
Tensile test simulation completed.

Total wall time: 1:39:18
