LAMMPS (2 Aug 2023 - Update 2)
OMP_NUM_THREADS environment is not set. Defaulting to 1 thread. (src/comm.cpp:98)
  using 1 OpenMP thread(s) per MPI task
Loaded 1 plugins from C:\Users\Ratish Panda\AppData\Local\LAMMPS 64-bit 2Aug2023-MSMPI with Python\plugins
# Tensile Test Simulation in LAMMPS

# Initialize
units metal
boundary p p p
atom_style atomic

# Specify the number of OpenMP threads
package omp 4
set 4 OpenMP thread(s) per MPI task
using multi-threaded neighbor list subroutines

# Read data file (output from previous steps)
read_data NiCoCrFe_pka_5keV_final.lmp
Reading data file ...
  orthogonal box = (0.80381162 0.80381162 0.80381162) to (161.64619 161.64619 161.64619)
  2 by 1 by 2 MPI processor grid
  reading atoms ...
  364500 atoms
  reading velocities ...
  364500 velocities
  read_data CPU = 4.370 seconds

# Define potential (EAM potential for Nickel)
pair_style eam/alloy
pair_coeff * * FeNiCrCoCu-with-ZBL.eam.alloy Ni Co Cr Fe

neighbor	 1 bin
neigh_modify every 1 delay 0 check yes

# Define relaxation parameters
reset_timestep 0
timestep 0.01
fix 1 all npt temp 300 300 0.8 iso 0 0 1 drag 1
thermo 100
thermo_style custom time step temp press etotal

# Relaxation for 20 ps
run 2000
No /omp style for force computation currently active
Neighbor list info ...
  update: every = 1 steps, delay = 0 steps, check = yes
  max neighbors/atom: 2000, page size: 100000
  master list distance cutoff = 6.80375
  ghost atom cutoff = 6.80375
  binsize = 3.401875, bins = 48 48 48
  1 neighbor lists, perpetual/occasional/extra = 1 0 0
  (1) pair eam/alloy, perpetual
      attributes: half, newton on, omp
      pair build: half/bin/atomonly/newton/omp
      stencil: half/bin/3d
      bin: standard
Per MPI rank memory allocation (min/avg/max) = 63.87 | 64.07 | 64.26 Mbytes
     Time         Step          Temp          Press          TotEng    
 0                      0   364.50139     -26388.041     -1554645      
 1                    100   360.80335     -243.75794     -1555794.2    
 2                    200   351.22452     -102.79481     -1556549      
 3                    300   345.55243     -201.33304     -1557227.8    
 4                    400   338.67235      270.97118     -1557827.7    
 5                    500   333.191        201.18578     -1558364.6    
 6                    600   327.92966     -122.58018     -1558842.7    
 7                    700   324.3184      -138.29214     -1559265.2    
 8                    800   320.71631     -70.13111      -1559636.8    
 9                    900   316.04282      146.88901     -1559963.6    
 10                  1000   313.82256      17.230072     -1560251.9    
 11                  1100   310.79832     -143.43775     -1560493.7    
 12                  1200   308.16532      147.86516     -1560705.3    
 13                  1300   306.87412      17.898356     -1560889.2    
 14                  1400   305.78102     -292.8594      -1561039.9    
 15                  1500   304.26429      62.588546     -1561165.5    
 16                  1600   302.68778      17.411105     -1561267.1    
 17                  1700   301.04383      97.219435     -1561349.4    
 18                  1800   301.80554     -17.60934      -1561413.6    
 19                  1900   300.47704      64.944155     -1561459.2    
 20                  2000   300.59683      78.604207     -1561498.9    
Loop time of 814.962 on 16 procs for 2000 steps with 364500 atoms

Performance: 2.120 ns/day, 11.319 hours/ns, 2.454 timesteps/s, 894.520 katom-step/s
102.8% CPU use with 4 MPI tasks x 4 OpenMP threads

MPI task timing breakdown:
Section |  min time  |  avg time  |  max time  |%varavg| %total
---------------------------------------------------------------
Pair    | 682.54     | 689.01     | 692.52     |  15.0 | 84.55
Neigh   | 52.213     | 52.979     | 53.513     |   6.5 |  6.50
Comm    | 25.849     | 29.197     | 35.642     |  72.0 |  3.58
Output  | 0.01899    | 0.019164   | 0.019287   |   0.1 |  0.00
Modify  | 39.991     | 40.154     | 40.246     |   1.5 |  4.93
Other   |            | 3.598      |            |       |  0.44

Nlocal:          91125 ave       91710 max       90579 min
Histogram: 1 1 0 0 0 0 0 1 0 1
Nghost:        40083.8 ave       40575 max       39547 min
Histogram: 1 1 0 0 0 0 0 0 0 2
Neighs:    6.01094e+06 ave 6.07733e+06 max 5.94514e+06 min
Histogram: 1 0 0 0 1 1 0 0 0 1

Total # of neighbors = 24043778
Ave neighs/atom = 65.963726
Neighbor list builds = 370
Dangerous builds = 0

# write output data
write_data NiCoCrFe_5KeV_Relaxed.lmp
System init for write_data ...
No /omp style for force computation currently active

#--------------------------
# Store final cell length for strain calculations
variable tmp equal "lx"
variable L0 equal ${tmp}
variable L0 equal 159.9936589155
print "Initial Length, L0: ${L0}"
Initial Length, L0: 159.9936589155

reset_timestep 0

fix 1 all npt temp 300 300 1 x 0 0 1 y 0 0 1 drag 1
variable srate equal 2.0e9
variable srate1 equal "v_srate / 1.0e12" # adjusting strain rate unit from per second to per picosecond
fix 2 all deform 1 z erate ${srate1} units box remap x
fix 2 all deform 1 z erate 0.002 units box remap x

# Output strain and stress info to file
# for units metal, pressure is in [bars] = 100 [kPa] = 1/10000 [GPa]
# p2, p3, p4 are in GPa
variable strain equal "(lz - v_L0)/v_L0"
variable p1 equal "v_strain"
variable p2 equal "-pxx/10000"
variable p3 equal "-pyy/10000"
variable p4 equal "-pzz/10000"
fix def1 all print 10 "${p1} ${p2} ${p3} ${p4}" file NiCoCrFe_Tensile_5KeV.def1.txt screen no

# dumping data
dump 1 all custom 1000 dump.NiCoCrFe_Tensile_5KeV_*.dump id type x y z
dump_modify 1 sort id

# Display thermo
thermo 100
thermo_style custom time step v_strain temp v_p2 v_p3 v_p4 ke pe press

# run tensile test for 100 ps
run 10000
No /omp style for force computation currently active
Per MPI rank memory allocation (min/avg/max) = 65.43 | 65.43 | 65.43 Mbytes
     Time         Step        v_strain         Temp           v_p2           v_p3           v_p4          KinEng         PotEng         Press     
 0                      0  -2.8422836e-15  300.59683     -0.013756835   -0.0046747419  -0.0051496855   14162.678     -1575661.6      78.604207    
 1                    100   0.002          300.47988     -0.012703971    0.000561413    0.25394191     14157.168     -1575637.5     -805.99783    
 2                    200   0.004          300.18167      0.0028777154   0.014426517    0.53920484     14143.117     -1575591.3     -1855.0302    
 3                    300   0.006          299.0649      -0.001140177   -0.008411704    0.79237364     14090.5       -1575487.5     -2609.4059    
 4                    400   0.008          299.22458     -0.025994106   -0.0084358787   1.0542985      14098.024     -1575418.1     -3399.5617    
 5                    500   0.01           300.10959      0.0090050084   0.0017641993   1.3392055      14139.722     -1575362.6     -4499.9157    
 6                    600   0.012          299.82778      0.011604838    0.006646317    1.5958396      14126.444     -1575241       -5380.3024    
 7                    700   0.014          299.40693      0.0029640777   0.0087804046   1.8603926      14106.615     -1575098.6     -6240.4569    
 8                    800   0.016          299.56401     -0.0030154627   0.009451349    2.1260974      14114.016     -1574968.3     -7108.4443    
 9                    900   0.018          299.81309     -0.0040745014  -0.002681177    2.3778584      14125.752     -1574827       -7903.6758    
 10                  1000   0.02           299.72783      0.016360831    0.012750775    2.6537511      14121.735     -1574660       -8942.8758    
 11                  1100   0.022          299.77353     -0.0030793865   0.0099553272   2.8944081      14123.888     -1574482.5     -9670.947     
 12                  1200   0.024          299.53577      0.015206767   -0.0061520379   3.1510388      14112.686     -1574279.6     -10533.645    
 13                  1300   0.026          299.74091      0.0057095807   0.010414644    3.4088072      14122.351     -1574084.4     -11416.438    
 14                  1400   0.028          299.81308     -0.0033629333   0.00580628     3.6464093      14125.751     -1573871.6     -12162.842    
 15                  1500   0.03           299.87722      0.0026695678   0.0027002929   3.8936884      14128.773     -1573647.3     -12996.861    
 16                  1600   0.032          300.28533      0.0043217912   0.0022109616   4.1393791      14148.002     -1573424.7     -13819.706    
 17                  1700   0.034          299.51853     -0.0036014837  -0.010731249    4.3675437      14111.874     -1573136       -14510.703    
 18                  1800   0.036          299.11424     -0.023100991   -0.012574486    4.5984395      14092.825     -1572853.9     -15209.213    
 19                  1900   0.038          299.81159      0.0032818134  -3.5733189e-07  4.8481531      14125.681     -1572609.7     -16171.449    
 20                  2000   0.04           300.09172     -0.0081676223  -0.0079514381   5.062502       14138.879     -1572334.6     -16821.276    
 21                  2100   0.042          299.40438     -7.3379506e-05  0.0054176113   5.3153         14106.495     -1572004.1     -17735.481    
 22                  2200   0.044          299.08905     -0.027887183   -0.020816345    5.5219953      14091.639     -1571678.8     -18244.306    
 23                  2300   0.046          300.1502      -0.0079982527  -0.0096123762   5.7557038      14141.635     -1571408.7     -19126.977    
 24                  2400   0.048          300.00068      0.026392286    0.028195185    6.0027796      14134.59      -1571069.6     -20191.223    
 25                  2500   0.05           299.13202     -0.0060468464  -0.007622027    6.1997846      14093.663     -1570686.5     -20620.386    
 26                  2600   0.052          299.66434     -0.010955186   -0.011491081    6.4123727      14118.743     -1570361.9     -21299.755    
 27                  2700   0.054          299.98161     -0.0076664965  -0.0091765769   6.6407461      14133.692     -1570012.6     -22079.677    
 28                  2800   0.056          299.43185     -0.0054469009  -0.010507871    6.8593897      14107.789     -1569614.5     -22811.45     
 29                  2900   0.058          299.57128     -0.023643899   -0.023930394    7.0722559      14114.359     -1569237.9     -23415.606    
 30                  3000   0.06           300.25202      0.003957532    0.0029467537   7.3071316      14146.432     -1568878.4     -24380.12     
 31                  3100   0.062          300.37854      0.016754956    0.0056882069   7.5360865      14152.393     -1568480.2     -25195.099    
 32                  3200   0.064          299.40102     -4.8673144e-06  0.0084944052   7.7407668      14106.337     -1568019.4     -25830.854    
 33                  3300   0.066          299.86858      0.016927494    0.010433118    7.9686509      14128.366     -1567621.8     -26653.372    
 34                  3400   0.068          299.53938     -0.0069821754  -0.0020474165   8.1716955      14112.856     -1567170.6     -27208.886    
 35                  3500   0.07           299.75492     -0.019791325   -0.014812643    8.3866522      14123.011     -1566736.5     -27840.161    
 36                  3600   0.072          299.51045     -0.0016250504  -0.016380113    8.6101566      14111.493     -1566271.9     -28640.505    
 37                  3700   0.074          299.74417      0.0063749819   0.00049472742  8.8262743      14122.505     -1565819.9     -29443.813    
 38                  3800   0.076          299.64789      0.0056486143   0.013111744    9.0543573      14117.968     -1565342.4     -30243.725    
 39                  3900   0.078          299.33583     -0.010521471    0.00069686788  9.2668727      14103.266     -1564840.6     -30856.827    
 40                  4000   0.08           299.78784      0.013050257    0.012917644    9.4964947      14124.562     -1564371.3     -31741.542    
 41                  4100   0.082          299.74276      0.010637958    0.0032035055   9.7151384      14122.438     -1563862.9     -32429.933    
 42                  4200   0.084          299.69304     -0.028081583   -0.027018809    9.9259327      14120.096     -1563345.2     -32902.774    
 43                  4300   0.086          299.76903     -0.021303295   -0.026919643    10.141723      14123.676     -1562822.7     -33645.001    
 44                  4400   0.088          299.44033     -0.012632659   -0.008735634    10.369722      14108.189     -1562271.2     -34494.511    
 45                  4500   0.09           299.16812     -0.015960033   -0.014665482    10.590275      14095.364     -1561711.4     -35198.833    
 46                  4600   0.092          299.09908      0.0028295404   0.0078224147   10.827987      14092.111     -1561150.6     -36128.796    
 47                  4700   0.094          299.43063     -0.016338288   -0.017353979    11.048564      14107.732     -1560599       -36716.24     
 48                  4800   0.096          299.86486      0.0098839901   0.016400236    11.287127      14128.191     -1560042.4     -37711.369    
 49                  4900   0.098          299.24401     -0.009203648   -0.00090575058  11.502386      14098.939     -1559424.1     -38307.588    
 50                  5000   0.1            299.35223      0.012826341    0.014065008    11.750066      14104.038     -1558828.1     -39256.525    
 51                  5100   0.102          300.20603      0.032921622    0.023016426    11.984959      14144.265     -1558258.2     -40136.324    
 52                  5200   0.104          299.75891     -0.0048873755  -0.0075142208   12.196884      14123.199     -1557614       -40614.941    
 53                  5300   0.106          299.29844     -0.0012377974  -0.003639125    12.434305      14101.504     -1556957.1     -41431.426    
 54                  5400   0.108          299.44893     -0.00019532166 -0.00077446336  12.666963      14108.594     -1556319.1     -42219.979    
 55                  5500   0.11           299.48719      0.012708983    0.014196191    12.905983      14110.397     -1555662.6     -43109.626    
 56                  5600   0.112          299.78916      0.005814174    0.0049182135   13.139752      14124.625     -1555010.5     -43834.949    
 57                  5700   0.114          299.81978     -0.0083661956  -0.0019893459   13.365269      14126.067     -1554332       -44516.379    
 58                  5800   0.116          299.31974     -0.0054106938   0.0042249923   13.610471      14102.507     -1553617.4     -45364.285    
 59                  5900   0.118          298.96015     -0.011192621   -0.011067892    13.84716       14085.566     -1552893.3     -46082.998    
 60                  6000   0.12           298.89717      0.01623733     0.011181006    14.095234      14082.598     -1552176.8     -47075.508    
 61                  6100   0.122          299.02803      0.010672537    0.015557492    14.335751      14088.764     -1551456.7     -47873.27     
 62                  6200   0.124          299.54653     -0.0053542969   0.0080130184   14.570124      14113.193     -1550745.5     -48575.944    
 63                  6300   0.126          298.92388     -0.024868797   -0.026009945    14.81196       14083.856     -1549963.8     -49203.603    
 64                  6400   0.128          299.41345     -0.012816204   -0.011280211    15.022582      14106.923     -1549226.3     -49994.952    
 65                  6500   0.13           301.31793      0.007175724    0.0048597234   15.182016      14196.653     -1548561.2     -50646.839    
 66                  6600   0.132          306.34645      0.010497008    0.0050879367   15.107883      14433.572     -1548128.7     -50411.56     
 67                  6700   0.134          319.48922      0.0090533249  -0.0010130942   14.528603      15052.796     -1548193.1     -48455.478    
 68                  6800   0.136          351.74174     -0.0024484206   0.0087901133   12.813069      16572.38      -1549419.6     -42731.368    
 69                  6900   0.138          402.08614      0.048399981    0.030346294    9.8807658      18944.367     -1551962.1     -33198.374    
 70                  7000   0.14           446.43955      0.0013936768   0.0034822638   6.7166086      21034.086     -1554842.4     -22404.948    
 71                  7100   0.142          458.594        0.012315607    0.037053586    4.3630337      21606.745     -1556608.7     -14708.01     
 72                  7200   0.144          459.28003     -0.0053170055  -0.015034643    3.4344168      21639.067     -1557963.7     -11380.217    
 73                  7300   0.146          453.15237      0.01411163     0.028831697    3.2411333      21350.362     -1558997       -10946.922    
 74                  7400   0.148          445.72134     -0.026763532   -0.014503604    3.0244439      21000.247     -1559910.4     -9943.9224    
 75                  7500   0.15           437.12776     -0.0058186255   0.026015958    2.9575693      20595.359     -1560702.1     -9925.8888    
 76                  7600   0.152          428.57488      0.019657153   -0.017047201    2.8981261      20192.389     -1561424.4     -9669.12      
 77                  7700   0.154          419.81428      0.012839083    0.0018026449   2.8754251      19779.631     -1562054.6     -9633.556     
 78                  7800   0.156          410.32983      0.023827219    0.033014414    2.8829446      19332.769     -1562577.5     -9799.2874    
 79                  7900   0.158          403.83274     -0.010604939   -0.0076639446   2.8423639      19026.658     -1563172.2     -9413.6502    
 80                  8000   0.16           396.48271     -0.0078855592   0.0073958997   2.7595229      18680.36      -1563662.4     -9196.7776    
 81                  8100   0.162          387.00585      0.0056773388   0.0092911286   2.7049968      18233.856     -1563988.5     -9066.5508    
 82                  8200   0.164          380.50011     -0.01772186    -0.017615523    2.7401246      17927.336     -1564388.8     -9015.9573    
 83                  8300   0.166          374.24865     -0.0088283894  -0.0019767492   2.8408835      17632.798     -1564741.8     -9433.5947    
 84                  8400   0.168          368.44211      0.01278552    -0.006192233    2.889135       17359.221     -1565053.3     -9652.4275    
 85                  8500   0.17           364.31549      0.00039729554  0.0061982537   2.8745358      17164.795     -1565406.8     -9603.771     
 86                  8600   0.172          360.32066     -0.02892741    -0.02638443     2.7322521      16976.578     -1565734.7     -8923.1343    
 87                  8700   0.174          356.38315     -0.040966949   -0.01822414     2.723428       16791.061     -1566034.7     -8880.7895    
 88                  8800   0.176          352.69246     -0.0032025386   0.0091889488   2.7273067      16617.174     -1566312.6     -9110.977     
 89                  8900   0.178          348.28048      0.01096401     0.016170579    2.7200064      16409.302     -1566523.8     -9157.1365    
 90                  9000   0.18           344.56826      0.018687956    0.0058388779   2.7495715      16234.4       -1566735.8     -9246.9943    
 91                  9100   0.182          340.83146      0.0041973175  -0.025661128    2.7808067      16058.34      -1566909.6     -9197.8097    
 92                  9200   0.184          337.14506     -0.010021033   -0.014427759    2.7953621      15884.655     -1567055.4     -9236.3778    
 93                  9300   0.186          335.67785      0.00018258197  0.0074655992   2.7367912      15815.527     -1567283.1     -9148.1313    
 94                  9400   0.188          333.96849     -0.023012643   -0.0015697575   2.6905958      15734.99      -1567482.8     -8886.7113    
 95                  9500   0.19           330.94045      0.0219667      0.020903481    2.7340564      15592.324     -1567597.9     -9256.422     
 96                  9600   0.192          328.60396     -0.0091610212   0.016562727    2.7836311      15482.239     -1567722.5     -9303.4426    
 97                  9700   0.194          326.01913     -0.0036393675   0.0032333772   2.7773739      15360.454     -1567808.1     -9256.5596    
 98                  9800   0.196          323.62644     -0.011518237   -0.0030952877   2.8008536      15247.723     -1567880.5     -9287.4669    
 99                  9900   0.198          321.70041      0.00664656     0.0012182315   2.7426967      15156.977     -1567959.7     -9168.5383    
 100                10000   0.2            320.03982     -0.013180832   -0.0053079459   2.7709748      15078.738     -1568034.9     -9174.9534    
Loop time of 3938.71 on 16 procs for 10000 steps with 364500 atoms

Performance: 2.194 ns/day, 10.941 hours/ns, 2.539 timesteps/s, 925.430 katom-step/s
103.6% CPU use with 4 MPI tasks x 4 OpenMP threads

MPI task timing breakdown:
Section |  min time  |  avg time  |  max time  |%varavg| %total
---------------------------------------------------------------
Pair    | 3208.8     | 3221.5     | 3235       |  16.4 | 81.79
Neigh   | 306.91     | 308.85     | 310.53     |   7.6 |  7.84
Comm    | 133.26     | 146.42     | 158.65     |  74.6 |  3.72
Output  | 2.5268     | 2.7583     | 2.9829     |  10.3 |  0.07
Modify  | 240.53     | 240.89     | 241.36     |   1.9 |  6.12
Other   |            | 18.31      |            |       |  0.46

Nlocal:          91125 ave       91451 max       90752 min
Histogram: 1 0 1 0 0 0 0 0 1 1
Nghost:        43619.2 ave       43712 max       43500 min
Histogram: 1 0 0 0 0 1 1 0 0 1
Neighs:    5.73267e+06 ave 5.76579e+06 max 5.68927e+06 min
Histogram: 1 0 0 1 0 0 0 0 0 2

Total # of neighbors = 22930695
Ave neighs/atom = 62.91
Neighbor list builds = 2004
Dangerous builds = 0

# write output data
write_data NiCoCrFe_5KeV_Strained.lmp
System init for write_data ...
No /omp style for force computation currently active

# end of simulation
print "Tensile test simulation completed."
Tensile test simulation completed.


Total wall time: 1:19:21
