LAMMPS (2 Aug 2023 - Update 2)
OMP_NUM_THREADS environment is not set. Defaulting to 1 thread. (src/comm.cpp:98)
  using 1 OpenMP thread(s) per MPI task
Loaded 1 plugins from C:\Users\Ratish Panda\AppData\Local\LAMMPS 64-bit 2Aug2023-MSMPI with Python\plugins
# LAMMPS input script for PKA radiation damage in NiCoCrFe at 5 keV
# Establish crystal model, apply 3D PBC, introduce PKA, simulate damage

# Initialize
units metal
boundary p p p
atom_style atomic

# Specify the number of OpenMP threads
package omp 4
set 4 OpenMP thread(s) per MPI task
using multi-threaded neighbor list subroutines

# Read relaxed data file (output from relaxation)
read_data NiCoCrFe_relaxed.lmp
Reading data file ...
  orthogonal box = (0.80381162 0.80381162 0.80381162) to (161.64619 161.64619 161.64619)
  2 by 1 by 2 MPI processor grid
  reading atoms ...
  364500 atoms
  reading velocities ...
  364500 velocities
  read_data CPU = 4.755 seconds

# Define potential (EAM potential for Nickel)
pair_style eam/alloy
pair_coeff * * FeNiCrCoCu-heafixed.setfl Ni Co Cr Fe

neighbor	 1 bin
neigh_modify every 1 delay 0 check yes

# Define thermodynamic dump parameters
reset_timestep 0
thermo 100
thermo_style custom time step temp press etotal

# Apply 3D periodic boundary conditions (already applied by 'read_data')
# No need for create_box or create_atoms

# Dump settings for atomic configurations (optional)
# Use if you want to visualize the simulation progress
dump 1 all custom 1000 NiCoCrFe_pka_5kev_*.dump id type x y z
dump_modify 1 sort id

# PKA radiation damage process
# Define PKA properties
variable pka_energy equal 5.0  # PKA energy in keV
variable pka_direction_x equal 0  # PKA direction x-component
variable pka_direction_y equal 0  # PKA direction y-component
variable pka_direction_z equal 1  # PKA direction z-component

# Calculate center of the simulation cell
variable cell_center_x equal lx/2
variable cell_center_y equal ly/2
variable cell_center_z equal lz/2

# Define radius for selecting recoil atom
variable radius equal 5.0 # This encompasses a bunch of central atoms - at least one should be an Fe atom

# Pick a random atom near the center as the recoil atom
region center_sphere sphere ${cell_center_x} ${cell_center_y} ${cell_center_z} ${radius}
region center_sphere sphere 80.4211883806387 ${cell_center_y} ${cell_center_z} ${radius}
region center_sphere sphere 80.4211883806387 80.4211883806387 ${cell_center_z} ${radius}
region center_sphere sphere 80.4211883806387 80.4211883806387 80.4211883806387 ${radius}
region center_sphere sphere 80.4211883806387 80.4211883806387 80.4211883806387 5

# Create a group of atoms within the defined center region
group center_atoms region center_sphere
44 atoms in group center_atoms

# Create a group of Fe atoms
group fe_atoms type 2 # type 2 is Fe
91125 atoms in group fe_atoms

# PKA velocity is determined by mass of Fe atom, which is selected as PKA atom
# Set PKA velocity to 1314 angstroms per picosecond in specified direction
variable pka_velocity equal 1314.0

region select sphere ${cell_center_x} ${cell_center_y} ${cell_center_z} ${radius}
region select sphere 80.4211883806387 ${cell_center_y} ${cell_center_z} ${radius}
region select sphere 80.4211883806387 80.4211883806387 ${cell_center_z} ${radius}
region select sphere 80.4211883806387 80.4211883806387 80.4211883806387 ${radius}
region select sphere 80.4211883806387 80.4211883806387 80.4211883806387 5
group select empty
0 atoms in group select
variable inside equal count(select,select) #there should not be any empty space between select and select (very hard to debug)
variable n loop 400000 # set to 400000, more than number of atoms in sim cell

label jump
variable select index $(random(1,atoms,364500):%.0f)
variable select index 296858
group select id ${select}
group select id 296858
1 atoms in group select
if "${inside} == 0" then     "group select delete"     "variable select delete"     "next n"     "jump SELF jump"
group select delete
variable select delete
next n
jump SELF jump
variable select index $(random(1,atoms,364500):%.0f)
variable select index 201280
group select id ${select}
group select id 201280
1 atoms in group select
if "${inside} == 0" then     "group select delete"     "variable select delete"     "next n"     "jump SELF jump"
group select delete
variable select delete
next n
jump SELF jump
variable select index $(random(1,atoms,364500):%.0f)
variable select index 132091
group select id ${select}
group select id 132091
1 atoms in group select
if "${inside} == 0" then     "group select delete"     "variable select delete"     "next n"     "jump SELF jump"
group select delete
variable select delete
next n
jump SELF jump
variable select index $(random(1,atoms,364500):%.0f)
variable select index 38085
group select id ${select}
group select id 38085
1 atoms in group select
if "${inside} == 0" then     "group select delete"     "variable select delete"     "next n"     "jump SELF jump"
group select delete
variable select delete
next n
jump SELF jump
variable select index $(random(1,atoms,364500):%.0f)
variable select index 263551
group select id ${select}
group select id 263551
1 atoms in group select
if "${inside} == 0" then     "group select delete"     "variable select delete"     "next n"     "jump SELF jump"
group select delete
variable select delete
next n
jump SELF jump
variable select index $(random(1,atoms,364500):%.0f)
variable select index 253872
group select id ${select}
group select id 253872
1 atoms in group select
if "${inside} == 0" then     "group select delete"     "variable select delete"     "next n"     "jump SELF jump"
group select delete
variable select delete
next n
jump SELF jump
variable select index $(random(1,atoms,364500):%.0f)
variable select index 172830
group select id ${select}
group select id 172830
1 atoms in group select
if "${inside} == 0" then     "group select delete"     "variable select delete"     "next n"     "jump SELF jump"
group select delete
variable select delete
next n
jump SELF jump
variable select index $(random(1,atoms,364500):%.0f)
variable select index 150260
group select id ${select}
group select id 150260
1 atoms in group select
if "${inside} == 0" then     "group select delete"     "variable select delete"     "next n"     "jump SELF jump"
group select delete
variable select delete
next n
jump SELF jump
variable select index $(random(1,atoms,364500):%.0f)
variable select index 301592
group select id ${select}
group select id 301592
1 atoms in group select
if "${inside} == 0" then     "group select delete"     "variable select delete"     "next n"     "jump SELF jump"
group select delete
variable select delete
next n
jump SELF jump
variable select index $(random(1,atoms,364500):%.0f)
variable select index 51471
group select id ${select}
group select id 51471
1 atoms in group select
if "${inside} == 0" then     "group select delete"     "variable select delete"     "next n"     "jump SELF jump"
group select delete
variable select delete
next n
jump SELF jump
variable select index $(random(1,atoms,364500):%.0f)
variable select index 279840
group select id ${select}
group select id 279840
1 atoms in group select
if "${inside} == 0" then     "group select delete"     "variable select delete"     "next n"     "jump SELF jump"
group select delete
variable select delete
next n
jump SELF jump
variable select index $(random(1,atoms,364500):%.0f)
variable select index 209519
group select id ${select}
group select id 209519
1 atoms in group select
if "${inside} == 0" then     "group select delete"     "variable select delete"     "next n"     "jump SELF jump"
group select delete
variable select delete
next n
jump SELF jump
variable select index $(random(1,atoms,364500):%.0f)
variable select index 292929
group select id ${select}
group select id 292929
1 atoms in group select
if "${inside} == 0" then     "group select delete"     "variable select delete"     "next n"     "jump SELF jump"
group select delete
variable select delete
next n
jump SELF jump
variable select index $(random(1,atoms,364500):%.0f)
variable select index 338241
group select id ${select}
group select id 338241
1 atoms in group select
if "${inside} == 0" then     "group select delete"     "variable select delete"     "next n"     "jump SELF jump"
group select delete
variable select delete
next n
jump SELF jump
variable select index $(random(1,atoms,364500):%.0f)
variable select index 277311
group select id ${select}
group select id 277311
1 atoms in group select
if "${inside} == 0" then     "group select delete"     "variable select delete"     "next n"     "jump SELF jump"
group select delete
variable select delete
next n
jump SELF jump
variable select index $(random(1,atoms,364500):%.0f)
variable select index 192326
group select id ${select}
group select id 192326
1 atoms in group select
if "${inside} == 0" then     "group select delete"     "variable select delete"     "next n"     "jump SELF jump"
group select delete
variable select delete
next n
jump SELF jump
variable select index $(random(1,atoms,364500):%.0f)
variable select index 354544
group select id ${select}
group select id 354544
1 atoms in group select
if "${inside} == 0" then     "group select delete"     "variable select delete"     "next n"     "jump SELF jump"
group select delete
variable select delete
next n
jump SELF jump
variable select index $(random(1,atoms,364500):%.0f)
variable select index 196152
group select id ${select}
group select id 196152
1 atoms in group select
if "${inside} == 0" then     "group select delete"     "variable select delete"     "next n"     "jump SELF jump"
group select delete
variable select delete
next n
jump SELF jump
variable select index $(random(1,atoms,364500):%.0f)
variable select index 107038
group select id ${select}
group select id 107038
1 atoms in group select
if "${inside} == 0" then     "group select delete"     "variable select delete"     "next n"     "jump SELF jump"
group select delete
variable select delete
next n
jump SELF jump
variable select index $(random(1,atoms,364500):%.0f)
variable select index 301559
group select id ${select}
group select id 301559
1 atoms in group select
if "${inside} == 0" then     "group select delete"     "variable select delete"     "next n"     "jump SELF jump"
group select delete
variable select delete
next n
jump SELF jump
variable select index $(random(1,atoms,364500):%.0f)
variable select index 239046
group select id ${select}
group select id 239046
1 atoms in group select
if "${inside} == 0" then     "group select delete"     "variable select delete"     "next n"     "jump SELF jump"
group select delete
variable select delete
next n
jump SELF jump
variable select index $(random(1,atoms,364500):%.0f)
variable select index 196791
group select id ${select}
group select id 196791
1 atoms in group select
if "${inside} == 0" then     "group select delete"     "variable select delete"     "next n"     "jump SELF jump"
group select delete
variable select delete
next n
jump SELF jump
variable select index $(random(1,atoms,364500):%.0f)
variable select index 98039
group select id ${select}
group select id 98039
1 atoms in group select
if "${inside} == 0" then     "group select delete"     "variable select delete"     "next n"     "jump SELF jump"
group select delete
variable select delete
next n
jump SELF jump
variable select index $(random(1,atoms,364500):%.0f)
variable select index 46037
group select id ${select}
group select id 46037
1 atoms in group select
if "${inside} == 0" then     "group select delete"     "variable select delete"     "next n"     "jump SELF jump"
group select delete
variable select delete
next n
jump SELF jump
variable select index $(random(1,atoms,364500):%.0f)
variable select index 280931
group select id ${select}
group select id 280931
1 atoms in group select
if "${inside} == 0" then     "group select delete"     "variable select delete"     "next n"     "jump SELF jump"
group select delete
variable select delete
next n
jump SELF jump
variable select index $(random(1,atoms,364500):%.0f)
variable select index 122278
group select id ${select}
group select id 122278
1 atoms in group select
if "${inside} == 0" then     "group select delete"     "variable select delete"     "next n"     "jump SELF jump"
group select delete
variable select delete
next n
jump SELF jump
variable select index $(random(1,atoms,364500):%.0f)
variable select index 251282
group select id ${select}
group select id 251282
1 atoms in group select
if "${inside} == 0" then     "group select delete"     "variable select delete"     "next n"     "jump SELF jump"
group select delete
variable select delete
next n
jump SELF jump
variable select index $(random(1,atoms,364500):%.0f)
variable select index 190405
group select id ${select}
group select id 190405
1 atoms in group select
if "${inside} == 0" then     "group select delete"     "variable select delete"     "next n"     "jump SELF jump"
group select delete
variable select delete
next n
jump SELF jump
variable select index $(random(1,atoms,364500):%.0f)
variable select index 139996
group select id ${select}
group select id 139996
1 atoms in group select
if "${inside} == 0" then     "group select delete"     "variable select delete"     "next n"     "jump SELF jump"
group select delete
variable select delete
next n
jump SELF jump
variable select index $(random(1,atoms,364500):%.0f)
variable select index 137051
group select id ${select}
group select id 137051
1 atoms in group select
if "${inside} == 0" then     "group select delete"     "variable select delete"     "next n"     "jump SELF jump"
group select delete
variable select delete
next n
jump SELF jump
variable select index $(random(1,atoms,364500):%.0f)
variable select index 220528
group select id ${select}
group select id 220528
1 atoms in group select
if "${inside} == 0" then     "group select delete"     "variable select delete"     "next n"     "jump SELF jump"
group select delete
variable select delete
next n
jump SELF jump
variable select index $(random(1,atoms,364500):%.0f)
variable select index 39777
group select id ${select}
group select id 39777
1 atoms in group select
if "${inside} == 0" then     "group select delete"     "variable select delete"     "next n"     "jump SELF jump"
group select delete
variable select delete
next n
jump SELF jump
variable select index $(random(1,atoms,364500):%.0f)
variable select index 200143
group select id ${select}
group select id 200143
1 atoms in group select
if "${inside} == 0" then     "group select delete"     "variable select delete"     "next n"     "jump SELF jump"
group select delete
variable select delete
next n
jump SELF jump
variable select index $(random(1,atoms,364500):%.0f)
variable select index 139841
group select id ${select}
group select id 139841
1 atoms in group select
if "${inside} == 0" then     "group select delete"     "variable select delete"     "next n"     "jump SELF jump"
group select delete
variable select delete
next n
jump SELF jump
variable select index $(random(1,atoms,364500):%.0f)
variable select index 22448
group select id ${select}
group select id 22448
1 atoms in group select
if "${inside} == 0" then     "group select delete"     "variable select delete"     "next n"     "jump SELF jump"
group select delete
variable select delete
next n
jump SELF jump
variable select index $(random(1,atoms,364500):%.0f)
variable select index 204592
group select id ${select}
group select id 204592
1 atoms in group select
if "${inside} == 0" then     "group select delete"     "variable select delete"     "next n"     "jump SELF jump"
group select delete
variable select delete
next n
jump SELF jump
variable select index $(random(1,atoms,364500):%.0f)
variable select index 109485
group select id ${select}
group select id 109485
1 atoms in group select
if "${inside} == 0" then     "group select delete"     "variable select delete"     "next n"     "jump SELF jump"
group select delete
variable select delete
next n
jump SELF jump
variable select index $(random(1,atoms,364500):%.0f)
variable select index 98450
group select id ${select}
group select id 98450
1 atoms in group select
if "${inside} == 0" then     "group select delete"     "variable select delete"     "next n"     "jump SELF jump"
group select delete
variable select delete
next n
jump SELF jump
variable select index $(random(1,atoms,364500):%.0f)
variable select index 114092
group select id ${select}
group select id 114092
1 atoms in group select
if "${inside} == 0" then     "group select delete"     "variable select delete"     "next n"     "jump SELF jump"
group select delete
variable select delete
next n
jump SELF jump
variable select index $(random(1,atoms,364500):%.0f)
variable select index 334052
group select id ${select}
group select id 334052
1 atoms in group select
if "${inside} == 0" then     "group select delete"     "variable select delete"     "next n"     "jump SELF jump"
group select delete
variable select delete
next n
jump SELF jump
variable select index $(random(1,atoms,364500):%.0f)
variable select index 184114
group select id ${select}
group select id 184114
1 atoms in group select
if "${inside} == 0" then     "group select delete"     "variable select delete"     "next n"     "jump SELF jump"
group select delete
variable select delete
next n
jump SELF jump
variable select index $(random(1,atoms,364500):%.0f)
variable select index 14806
group select id ${select}
group select id 14806
1 atoms in group select
if "${inside} == 0" then     "group select delete"     "variable select delete"     "next n"     "jump SELF jump"
group select delete
variable select delete
next n
jump SELF jump
variable select index $(random(1,atoms,364500):%.0f)
variable select index 8726
group select id ${select}
group select id 8726
1 atoms in group select
if "${inside} == 0" then     "group select delete"     "variable select delete"     "next n"     "jump SELF jump"
group select delete
variable select delete
next n
jump SELF jump
variable select index $(random(1,atoms,364500):%.0f)
variable select index 340185
group select id ${select}
group select id 340185
1 atoms in group select
if "${inside} == 0" then     "group select delete"     "variable select delete"     "next n"     "jump SELF jump"
group select delete
variable select delete
next n
jump SELF jump
variable select index $(random(1,atoms,364500):%.0f)
variable select index 76793
group select id ${select}
group select id 76793
1 atoms in group select
if "${inside} == 0" then     "group select delete"     "variable select delete"     "next n"     "jump SELF jump"
group select delete
variable select delete
next n
jump SELF jump
variable select index $(random(1,atoms,364500):%.0f)
variable select index 66608
group select id ${select}
group select id 66608
1 atoms in group select
if "${inside} == 0" then     "group select delete"     "variable select delete"     "next n"     "jump SELF jump"
group select delete
variable select delete
next n
jump SELF jump
variable select index $(random(1,atoms,364500):%.0f)
variable select index 20972
group select id ${select}
group select id 20972
1 atoms in group select
if "${inside} == 0" then     "group select delete"     "variable select delete"     "next n"     "jump SELF jump"
group select delete
variable select delete
next n
jump SELF jump
variable select index $(random(1,atoms,364500):%.0f)
variable select index 244687
group select id ${select}
group select id 244687
1 atoms in group select
if "${inside} == 0" then     "group select delete"     "variable select delete"     "next n"     "jump SELF jump"
group select delete
variable select delete
next n
jump SELF jump
variable select index $(random(1,atoms,364500):%.0f)
variable select index 356198
group select id ${select}
group select id 356198
1 atoms in group select
if "${inside} == 0" then     "group select delete"     "variable select delete"     "next n"     "jump SELF jump"
group select delete
variable select delete
next n
jump SELF jump
variable select index $(random(1,atoms,364500):%.0f)
variable select index 167189
group select id ${select}
group select id 167189
1 atoms in group select
if "${inside} == 0" then     "group select delete"     "variable select delete"     "next n"     "jump SELF jump"
group select delete
variable select delete
next n
jump SELF jump
variable select index $(random(1,atoms,364500):%.0f)
variable select index 349952
group select id ${select}
group select id 349952
1 atoms in group select
if "${inside} == 0" then     "group select delete"     "variable select delete"     "next n"     "jump SELF jump"
group select delete
variable select delete
next n
jump SELF jump
variable select index $(random(1,atoms,364500):%.0f)
variable select index 318419
group select id ${select}
group select id 318419
1 atoms in group select
if "${inside} == 0" then     "group select delete"     "variable select delete"     "next n"     "jump SELF jump"
group select delete
variable select delete
next n
jump SELF jump
variable select index $(random(1,atoms,364500):%.0f)
variable select index 224029
group select id ${select}
group select id 224029
1 atoms in group select
if "${inside} == 0" then     "group select delete"     "variable select delete"     "next n"     "jump SELF jump"
group select delete
variable select delete
next n
jump SELF jump
variable select index $(random(1,atoms,364500):%.0f)
variable select index 214595
group select id ${select}
group select id 214595
1 atoms in group select
if "${inside} == 0" then     "group select delete"     "variable select delete"     "next n"     "jump SELF jump"
group select delete
variable select delete
next n
jump SELF jump
variable select index $(random(1,atoms,364500):%.0f)
variable select index 17925
group select id ${select}
group select id 17925
1 atoms in group select
if "${inside} == 0" then     "group select delete"     "variable select delete"     "next n"     "jump SELF jump"
group select delete
variable select delete
next n
jump SELF jump
variable select index $(random(1,atoms,364500):%.0f)
variable select index 106171
group select id ${select}
group select id 106171
1 atoms in group select
if "${inside} == 0" then     "group select delete"     "variable select delete"     "next n"     "jump SELF jump"
group select delete
variable select delete
next n
jump SELF jump
variable select index $(random(1,atoms,364500):%.0f)
variable select index 24786
group select id ${select}
group select id 24786
1 atoms in group select
if "${inside} == 0" then     "group select delete"     "variable select delete"     "next n"     "jump SELF jump"
group select delete
variable select delete
next n
jump SELF jump
variable select index $(random(1,atoms,364500):%.0f)
variable select index 126804
group select id ${select}
group select id 126804
1 atoms in group select
if "${inside} == 0" then     "group select delete"     "variable select delete"     "next n"     "jump SELF jump"
group select delete
variable select delete
next n
jump SELF jump
variable select index $(random(1,atoms,364500):%.0f)
variable select index 346543
group select id ${select}
group select id 346543
1 atoms in group select
if "${inside} == 0" then     "group select delete"     "variable select delete"     "next n"     "jump SELF jump"
group select delete
variable select delete
next n
jump SELF jump
variable select index $(random(1,atoms,364500):%.0f)
variable select index 352807
group select id ${select}
group select id 352807
1 atoms in group select
if "${inside} == 0" then     "group select delete"     "variable select delete"     "next n"     "jump SELF jump"
group select delete
variable select delete
next n
jump SELF jump
variable select index $(random(1,atoms,364500):%.0f)
variable select index 60672
group select id ${select}
group select id 60672
1 atoms in group select
if "${inside} == 0" then     "group select delete"     "variable select delete"     "next n"     "jump SELF jump"
group select delete
variable select delete
next n
jump SELF jump
variable select index $(random(1,atoms,364500):%.0f)
variable select index 346740
group select id ${select}
group select id 346740
1 atoms in group select
if "${inside} == 0" then     "group select delete"     "variable select delete"     "next n"     "jump SELF jump"
group select delete
variable select delete
next n
jump SELF jump
variable select index $(random(1,atoms,364500):%.0f)
variable select index 303166
group select id ${select}
group select id 303166
1 atoms in group select
if "${inside} == 0" then     "group select delete"     "variable select delete"     "next n"     "jump SELF jump"
group select delete
variable select delete
next n
jump SELF jump
variable select index $(random(1,atoms,364500):%.0f)
variable select index 9020
group select id ${select}
group select id 9020
1 atoms in group select
if "${inside} == 0" then     "group select delete"     "variable select delete"     "next n"     "jump SELF jump"
group select delete
variable select delete
next n
jump SELF jump
variable select index $(random(1,atoms,364500):%.0f)
variable select index 270250
group select id ${select}
group select id 270250
1 atoms in group select
if "${inside} == 0" then     "group select delete"     "variable select delete"     "next n"     "jump SELF jump"
group select delete
variable select delete
next n
jump SELF jump
variable select index $(random(1,atoms,364500):%.0f)
variable select index 211694
group select id ${select}
group select id 211694
1 atoms in group select
if "${inside} == 0" then     "group select delete"     "variable select delete"     "next n"     "jump SELF jump"
group select delete
variable select delete
next n
jump SELF jump
variable select index $(random(1,atoms,364500):%.0f)
variable select index 121124
group select id ${select}
group select id 121124
1 atoms in group select
if "${inside} == 0" then     "group select delete"     "variable select delete"     "next n"     "jump SELF jump"
group select delete
variable select delete
next n
jump SELF jump
variable select index $(random(1,atoms,364500):%.0f)
variable select index 10323
group select id ${select}
group select id 10323
1 atoms in group select
if "${inside} == 0" then     "group select delete"     "variable select delete"     "next n"     "jump SELF jump"
group select delete
variable select delete
next n
jump SELF jump
variable select index $(random(1,atoms,364500):%.0f)
variable select index 163586
group select id ${select}
group select id 163586
1 atoms in group select
if "${inside} == 0" then     "group select delete"     "variable select delete"     "next n"     "jump SELF jump"
group select delete
variable select delete
next n
jump SELF jump
variable select index $(random(1,atoms,364500):%.0f)
variable select index 1792
group select id ${select}
group select id 1792
1 atoms in group select
if "${inside} == 0" then     "group select delete"     "variable select delete"     "next n"     "jump SELF jump"
group select delete
variable select delete
next n
jump SELF jump
variable select index $(random(1,atoms,364500):%.0f)
variable select index 221899
group select id ${select}
group select id 221899
1 atoms in group select
if "${inside} == 0" then     "group select delete"     "variable select delete"     "next n"     "jump SELF jump"
group select delete
variable select delete
next n
jump SELF jump
variable select index $(random(1,atoms,364500):%.0f)
variable select index 332804
group select id ${select}
group select id 332804
1 atoms in group select
if "${inside} == 0" then     "group select delete"     "variable select delete"     "next n"     "jump SELF jump"
group select delete
variable select delete
next n
jump SELF jump
variable select index $(random(1,atoms,364500):%.0f)
variable select index 241990
group select id ${select}
group select id 241990
1 atoms in group select
if "${inside} == 0" then     "group select delete"     "variable select delete"     "next n"     "jump SELF jump"
group select delete
variable select delete
next n
jump SELF jump
variable select index $(random(1,atoms,364500):%.0f)
variable select index 91264
group select id ${select}
group select id 91264
1 atoms in group select
if "${inside} == 0" then     "group select delete"     "variable select delete"     "next n"     "jump SELF jump"
group select delete
variable select delete
next n
jump SELF jump
variable select index $(random(1,atoms,364500):%.0f)
variable select index 252682
group select id ${select}
group select id 252682
1 atoms in group select
if "${inside} == 0" then     "group select delete"     "variable select delete"     "next n"     "jump SELF jump"
group select delete
variable select delete
next n
jump SELF jump
variable select index $(random(1,atoms,364500):%.0f)
variable select index 309076
group select id ${select}
group select id 309076
1 atoms in group select
if "${inside} == 0" then     "group select delete"     "variable select delete"     "next n"     "jump SELF jump"
group select delete
variable select delete
next n
jump SELF jump
variable select index $(random(1,atoms,364500):%.0f)
variable select index 17288
group select id ${select}
group select id 17288
1 atoms in group select
if "${inside} == 0" then     "group select delete"     "variable select delete"     "next n"     "jump SELF jump"
group select delete
variable select delete
next n
jump SELF jump
variable select index $(random(1,atoms,364500):%.0f)
variable select index 348896
group select id ${select}
group select id 348896
1 atoms in group select
if "${inside} == 0" then     "group select delete"     "variable select delete"     "next n"     "jump SELF jump"
group select delete
variable select delete
next n
jump SELF jump
variable select index $(random(1,atoms,364500):%.0f)
variable select index 24504
group select id ${select}
group select id 24504
1 atoms in group select
if "${inside} == 0" then     "group select delete"     "variable select delete"     "next n"     "jump SELF jump"
group select delete
variable select delete
next n
jump SELF jump
variable select index $(random(1,atoms,364500):%.0f)
variable select index 10118
group select id ${select}
group select id 10118
1 atoms in group select
if "${inside} == 0" then     "group select delete"     "variable select delete"     "next n"     "jump SELF jump"
group select delete
variable select delete
next n
jump SELF jump
variable select index $(random(1,atoms,364500):%.0f)
variable select index 358564
group select id ${select}
group select id 358564
1 atoms in group select
if "${inside} == 0" then     "group select delete"     "variable select delete"     "next n"     "jump SELF jump"
group select delete
variable select delete
next n
jump SELF jump
variable select index $(random(1,atoms,364500):%.0f)
variable select index 296167
group select id ${select}
group select id 296167
1 atoms in group select
if "${inside} == 0" then     "group select delete"     "variable select delete"     "next n"     "jump SELF jump"
group select delete
variable select delete
next n
jump SELF jump
variable select index $(random(1,atoms,364500):%.0f)
variable select index 61766
group select id ${select}
group select id 61766
1 atoms in group select
if "${inside} == 0" then     "group select delete"     "variable select delete"     "next n"     "jump SELF jump"
group select delete
variable select delete
next n
jump SELF jump
variable select index $(random(1,atoms,364500):%.0f)
variable select index 287586
group select id ${select}
group select id 287586
1 atoms in group select
if "${inside} == 0" then     "group select delete"     "variable select delete"     "next n"     "jump SELF jump"
group select delete
variable select delete
next n
jump SELF jump
variable select index $(random(1,atoms,364500):%.0f)
variable select index 85730
group select id ${select}
group select id 85730
1 atoms in group select
if "${inside} == 0" then     "group select delete"     "variable select delete"     "next n"     "jump SELF jump"
group select delete
variable select delete
next n
jump SELF jump
variable select index $(random(1,atoms,364500):%.0f)
variable select index 53870
group select id ${select}
group select id 53870
1 atoms in group select
if "${inside} == 0" then     "group select delete"     "variable select delete"     "next n"     "jump SELF jump"
group select delete
variable select delete
next n
jump SELF jump
variable select index $(random(1,atoms,364500):%.0f)
variable select index 51836
group select id ${select}
group select id 51836
1 atoms in group select
if "${inside} == 0" then     "group select delete"     "variable select delete"     "next n"     "jump SELF jump"
group select delete
variable select delete
next n
jump SELF jump
variable select index $(random(1,atoms,364500):%.0f)
variable select index 159359
group select id ${select}
group select id 159359
1 atoms in group select
if "${inside} == 0" then     "group select delete"     "variable select delete"     "next n"     "jump SELF jump"
group select delete
variable select delete
next n
jump SELF jump
variable select index $(random(1,atoms,364500):%.0f)
variable select index 185816
group select id ${select}
group select id 185816
1 atoms in group select
if "${inside} == 0" then     "group select delete"     "variable select delete"     "next n"     "jump SELF jump"
group select delete
variable select delete
next n
jump SELF jump
variable select index $(random(1,atoms,364500):%.0f)
variable select index 357145
group select id ${select}
group select id 357145
1 atoms in group select
if "${inside} == 0" then     "group select delete"     "variable select delete"     "next n"     "jump SELF jump"
group select delete
variable select delete
next n
jump SELF jump
variable select index $(random(1,atoms,364500):%.0f)
variable select index 326587
group select id ${select}
group select id 326587
1 atoms in group select
if "${inside} == 0" then     "group select delete"     "variable select delete"     "next n"     "jump SELF jump"
group select delete
variable select delete
next n
jump SELF jump
variable select index $(random(1,atoms,364500):%.0f)
variable select index 241611
group select id ${select}
group select id 241611
1 atoms in group select
if "${inside} == 0" then     "group select delete"     "variable select delete"     "next n"     "jump SELF jump"
group select delete
variable select delete
next n
jump SELF jump
variable select index $(random(1,atoms,364500):%.0f)
variable select index 34358
group select id ${select}
group select id 34358
1 atoms in group select
if "${inside} == 0" then     "group select delete"     "variable select delete"     "next n"     "jump SELF jump"
group select delete
variable select delete
next n
jump SELF jump
variable select index $(random(1,atoms,364500):%.0f)
variable select index 191638
group select id ${select}
group select id 191638
1 atoms in group select
if "${inside} == 0" then     "group select delete"     "variable select delete"     "next n"     "jump SELF jump"
group select delete
variable select delete
next n
jump SELF jump
variable select index $(random(1,atoms,364500):%.0f)
variable select index 147393
group select id ${select}
group select id 147393
1 atoms in group select
if "${inside} == 0" then     "group select delete"     "variable select delete"     "next n"     "jump SELF jump"
group select delete
variable select delete
next n
jump SELF jump
variable select index $(random(1,atoms,364500):%.0f)
variable select index 341822
group select id ${select}
group select id 341822
1 atoms in group select
if "${inside} == 0" then     "group select delete"     "variable select delete"     "next n"     "jump SELF jump"
group select delete
variable select delete
next n
jump SELF jump
variable select index $(random(1,atoms,364500):%.0f)
variable select index 51059
group select id ${select}
group select id 51059
1 atoms in group select
if "${inside} == 0" then     "group select delete"     "variable select delete"     "next n"     "jump SELF jump"
group select delete
variable select delete
next n
jump SELF jump
variable select index $(random(1,atoms,364500):%.0f)
variable select index 152143
group select id ${select}
group select id 152143
1 atoms in group select
if "${inside} == 0" then     "group select delete"     "variable select delete"     "next n"     "jump SELF jump"
group select delete
variable select delete
next n
jump SELF jump
variable select index $(random(1,atoms,364500):%.0f)
variable select index 281418
group select id ${select}
group select id 281418
1 atoms in group select
if "${inside} == 0" then     "group select delete"     "variable select delete"     "next n"     "jump SELF jump"
group select delete
variable select delete
next n
jump SELF jump
variable select index $(random(1,atoms,364500):%.0f)
variable select index 104597
group select id ${select}
group select id 104597
1 atoms in group select
if "${inside} == 0" then     "group select delete"     "variable select delete"     "next n"     "jump SELF jump"
group select delete
variable select delete
next n
jump SELF jump
variable select index $(random(1,atoms,364500):%.0f)
variable select index 287688
group select id ${select}
group select id 287688
1 atoms in group select
if "${inside} == 0" then     "group select delete"     "variable select delete"     "next n"     "jump SELF jump"
group select delete
variable select delete
next n
jump SELF jump
variable select index $(random(1,atoms,364500):%.0f)
variable select index 161689
group select id ${select}
group select id 161689
1 atoms in group select
if "${inside} == 0" then     "group select delete"     "variable select delete"     "next n"     "jump SELF jump"
group select delete
variable select delete
next n
jump SELF jump
variable select index $(random(1,atoms,364500):%.0f)
variable select index 115602
group select id ${select}
group select id 115602
1 atoms in group select
if "${inside} == 0" then     "group select delete"     "variable select delete"     "next n"     "jump SELF jump"
group select delete
variable select delete
next n
jump SELF jump
variable select index $(random(1,atoms,364500):%.0f)
variable select index 345247
group select id ${select}
group select id 345247
1 atoms in group select
if "${inside} == 0" then     "group select delete"     "variable select delete"     "next n"     "jump SELF jump"
group select delete
variable select delete
next n
jump SELF jump
variable select index $(random(1,atoms,364500):%.0f)
variable select index 13570
group select id ${select}
group select id 13570
1 atoms in group select
if "${inside} == 0" then     "group select delete"     "variable select delete"     "next n"     "jump SELF jump"
group select delete
variable select delete
next n
jump SELF jump
variable select index $(random(1,atoms,364500):%.0f)
variable select index 57514
group select id ${select}
group select id 57514
1 atoms in group select
if "${inside} == 0" then     "group select delete"     "variable select delete"     "next n"     "jump SELF jump"
group select delete
variable select delete
next n
jump SELF jump
variable select index $(random(1,atoms,364500):%.0f)
variable select index 124415
group select id ${select}
group select id 124415
1 atoms in group select
if "${inside} == 0" then     "group select delete"     "variable select delete"     "next n"     "jump SELF jump"
group select delete
variable select delete
next n
jump SELF jump
variable select index $(random(1,atoms,364500):%.0f)
variable select index 357663
group select id ${select}
group select id 357663
1 atoms in group select
if "${inside} == 0" then     "group select delete"     "variable select delete"     "next n"     "jump SELF jump"
group select delete
variable select delete
next n
jump SELF jump
variable select index $(random(1,atoms,364500):%.0f)
variable select index 32746
group select id ${select}
group select id 32746
1 atoms in group select
if "${inside} == 0" then     "group select delete"     "variable select delete"     "next n"     "jump SELF jump"
group select delete
variable select delete
next n
jump SELF jump
variable select index $(random(1,atoms,364500):%.0f)
variable select index 209741
group select id ${select}
group select id 209741
1 atoms in group select
if "${inside} == 0" then     "group select delete"     "variable select delete"     "next n"     "jump SELF jump"
group select delete
variable select delete
next n
jump SELF jump
variable select index $(random(1,atoms,364500):%.0f)
variable select index 89742
group select id ${select}
group select id 89742
1 atoms in group select
if "${inside} == 0" then     "group select delete"     "variable select delete"     "next n"     "jump SELF jump"
group select delete
variable select delete
next n
jump SELF jump
variable select index $(random(1,atoms,364500):%.0f)
variable select index 155001
group select id ${select}
group select id 155001
1 atoms in group select
if "${inside} == 0" then     "group select delete"     "variable select delete"     "next n"     "jump SELF jump"
group select delete
variable select delete
next n
jump SELF jump
variable select index $(random(1,atoms,364500):%.0f)
variable select index 250699
group select id ${select}
group select id 250699
1 atoms in group select
if "${inside} == 0" then     "group select delete"     "variable select delete"     "next n"     "jump SELF jump"
group select delete
variable select delete
next n
jump SELF jump
variable select index $(random(1,atoms,364500):%.0f)
variable select index 230767
group select id ${select}
group select id 230767
1 atoms in group select
if "${inside} == 0" then     "group select delete"     "variable select delete"     "next n"     "jump SELF jump"
group select delete
variable select delete
next n
jump SELF jump
variable select index $(random(1,atoms,364500):%.0f)
variable select index 301069
group select id ${select}
group select id 301069
1 atoms in group select
if "${inside} == 0" then     "group select delete"     "variable select delete"     "next n"     "jump SELF jump"
group select delete
variable select delete
next n
jump SELF jump
variable select index $(random(1,atoms,364500):%.0f)
variable select index 248153
group select id ${select}
group select id 248153
1 atoms in group select
if "${inside} == 0" then     "group select delete"     "variable select delete"     "next n"     "jump SELF jump"
group select delete
variable select delete
next n
jump SELF jump
variable select index $(random(1,atoms,364500):%.0f)
variable select index 18651
group select id ${select}
group select id 18651
1 atoms in group select
if "${inside} == 0" then     "group select delete"     "variable select delete"     "next n"     "jump SELF jump"
group select delete
variable select delete
next n
jump SELF jump
variable select index $(random(1,atoms,364500):%.0f)
variable select index 324291
group select id ${select}
group select id 324291
1 atoms in group select
if "${inside} == 0" then     "group select delete"     "variable select delete"     "next n"     "jump SELF jump"
group select delete
variable select delete
next n
jump SELF jump
variable select index $(random(1,atoms,364500):%.0f)
variable select index 115694
group select id ${select}
group select id 115694
1 atoms in group select
if "${inside} == 0" then     "group select delete"     "variable select delete"     "next n"     "jump SELF jump"
group select delete
variable select delete
next n
jump SELF jump
variable select index $(random(1,atoms,364500):%.0f)
variable select index 185272
group select id ${select}
group select id 185272
1 atoms in group select
if "${inside} == 0" then     "group select delete"     "variable select delete"     "next n"     "jump SELF jump"
group select delete
variable select delete
next n
jump SELF jump
variable select index $(random(1,atoms,364500):%.0f)
variable select index 192043
group select id ${select}
group select id 192043
1 atoms in group select
if "${inside} == 0" then     "group select delete"     "variable select delete"     "next n"     "jump SELF jump"
group select delete
variable select delete
next n
jump SELF jump
variable select index $(random(1,atoms,364500):%.0f)
variable select index 202279
group select id ${select}
group select id 202279
1 atoms in group select
if "${inside} == 0" then     "group select delete"     "variable select delete"     "next n"     "jump SELF jump"
group select delete
variable select delete
next n
jump SELF jump
variable select index $(random(1,atoms,364500):%.0f)
variable select index 38593
group select id ${select}
group select id 38593
1 atoms in group select
if "${inside} == 0" then     "group select delete"     "variable select delete"     "next n"     "jump SELF jump"
group select delete
variable select delete
next n
jump SELF jump
variable select index $(random(1,atoms,364500):%.0f)
variable select index 364452
group select id ${select}
group select id 364452
1 atoms in group select
if "${inside} == 0" then     "group select delete"     "variable select delete"     "next n"     "jump SELF jump"
group select delete
variable select delete
next n
jump SELF jump
variable select index $(random(1,atoms,364500):%.0f)
variable select index 190348
group select id ${select}
group select id 190348
1 atoms in group select
if "${inside} == 0" then     "group select delete"     "variable select delete"     "next n"     "jump SELF jump"
group select delete
variable select delete
next n
jump SELF jump
variable select index $(random(1,atoms,364500):%.0f)
variable select index 148990
group select id ${select}
group select id 148990
1 atoms in group select
if "${inside} == 0" then     "group select delete"     "variable select delete"     "next n"     "jump SELF jump"
group select delete
variable select delete
next n
jump SELF jump
variable select index $(random(1,atoms,364500):%.0f)
variable select index 155061
group select id ${select}
group select id 155061
1 atoms in group select
if "${inside} == 0" then     "group select delete"     "variable select delete"     "next n"     "jump SELF jump"
group select delete
variable select delete
next n
jump SELF jump
variable select index $(random(1,atoms,364500):%.0f)
variable select index 84580
group select id ${select}
group select id 84580
1 atoms in group select
if "${inside} == 0" then     "group select delete"     "variable select delete"     "next n"     "jump SELF jump"
group select delete
variable select delete
next n
jump SELF jump
variable select index $(random(1,atoms,364500):%.0f)
variable select index 240196
group select id ${select}
group select id 240196
1 atoms in group select
if "${inside} == 0" then     "group select delete"     "variable select delete"     "next n"     "jump SELF jump"
group select delete
variable select delete
next n
jump SELF jump
variable select index $(random(1,atoms,364500):%.0f)
variable select index 128624
group select id ${select}
group select id 128624
1 atoms in group select
if "${inside} == 0" then     "group select delete"     "variable select delete"     "next n"     "jump SELF jump"
group select delete
variable select delete
next n
jump SELF jump
variable select index $(random(1,atoms,364500):%.0f)
variable select index 133535
group select id ${select}
group select id 133535
1 atoms in group select
if "${inside} == 0" then     "group select delete"     "variable select delete"     "next n"     "jump SELF jump"
group select delete
variable select delete
next n
jump SELF jump
variable select index $(random(1,atoms,364500):%.0f)
variable select index 53163
group select id ${select}
group select id 53163
1 atoms in group select
if "${inside} == 0" then     "group select delete"     "variable select delete"     "next n"     "jump SELF jump"
group select delete
variable select delete
next n
jump SELF jump
variable select index $(random(1,atoms,364500):%.0f)
variable select index 213926
group select id ${select}
group select id 213926
1 atoms in group select
if "${inside} == 0" then     "group select delete"     "variable select delete"     "next n"     "jump SELF jump"
group select delete
variable select delete
next n
jump SELF jump
variable select index $(random(1,atoms,364500):%.0f)
variable select index 102024
group select id ${select}
group select id 102024
1 atoms in group select
if "${inside} == 0" then     "group select delete"     "variable select delete"     "next n"     "jump SELF jump"
group select delete
variable select delete
next n
jump SELF jump
variable select index $(random(1,atoms,364500):%.0f)
variable select index 18786
group select id ${select}
group select id 18786
1 atoms in group select
if "${inside} == 0" then     "group select delete"     "variable select delete"     "next n"     "jump SELF jump"
group select delete
variable select delete
next n
jump SELF jump
variable select index $(random(1,atoms,364500):%.0f)
variable select index 246811
group select id ${select}
group select id 246811
1 atoms in group select
if "${inside} == 0" then     "group select delete"     "variable select delete"     "next n"     "jump SELF jump"
group select delete
variable select delete
next n
jump SELF jump
variable select index $(random(1,atoms,364500):%.0f)
variable select index 38923
group select id ${select}
group select id 38923
1 atoms in group select
if "${inside} == 0" then     "group select delete"     "variable select delete"     "next n"     "jump SELF jump"
group select delete
variable select delete
next n
jump SELF jump
variable select index $(random(1,atoms,364500):%.0f)
variable select index 22460
group select id ${select}
group select id 22460
1 atoms in group select
if "${inside} == 0" then     "group select delete"     "variable select delete"     "next n"     "jump SELF jump"
group select delete
variable select delete
next n
jump SELF jump
variable select index $(random(1,atoms,364500):%.0f)
variable select index 340003
group select id ${select}
group select id 340003
1 atoms in group select
if "${inside} == 0" then     "group select delete"     "variable select delete"     "next n"     "jump SELF jump"
group select delete
variable select delete
next n
jump SELF jump
variable select index $(random(1,atoms,364500):%.0f)
variable select index 68820
group select id ${select}
group select id 68820
1 atoms in group select
if "${inside} == 0" then     "group select delete"     "variable select delete"     "next n"     "jump SELF jump"
group select delete
variable select delete
next n
jump SELF jump
variable select index $(random(1,atoms,364500):%.0f)
variable select index 333327
group select id ${select}
group select id 333327
1 atoms in group select
if "${inside} == 0" then     "group select delete"     "variable select delete"     "next n"     "jump SELF jump"
group select delete
variable select delete
next n
jump SELF jump
variable select index $(random(1,atoms,364500):%.0f)
variable select index 196651
group select id ${select}
group select id 196651
1 atoms in group select
if "${inside} == 0" then     "group select delete"     "variable select delete"     "next n"     "jump SELF jump"
group select delete
variable select delete
next n
jump SELF jump
variable select index $(random(1,atoms,364500):%.0f)
variable select index 175767
group select id ${select}
group select id 175767
1 atoms in group select
if "${inside} == 0" then     "group select delete"     "variable select delete"     "next n"     "jump SELF jump"
group select delete
variable select delete
next n
jump SELF jump
variable select index $(random(1,atoms,364500):%.0f)
variable select index 51927
group select id ${select}
group select id 51927
1 atoms in group select
if "${inside} == 0" then     "group select delete"     "variable select delete"     "next n"     "jump SELF jump"
group select delete
variable select delete
next n
jump SELF jump
variable select index $(random(1,atoms,364500):%.0f)
variable select index 12180
group select id ${select}
group select id 12180
1 atoms in group select
if "${inside} == 0" then     "group select delete"     "variable select delete"     "next n"     "jump SELF jump"
group select delete
variable select delete
next n
jump SELF jump
variable select index $(random(1,atoms,364500):%.0f)
variable select index 194290
group select id ${select}
group select id 194290
1 atoms in group select
if "${inside} == 0" then     "group select delete"     "variable select delete"     "next n"     "jump SELF jump"
group select delete
variable select delete
next n
jump SELF jump
variable select index $(random(1,atoms,364500):%.0f)
variable select index 191509
group select id ${select}
group select id 191509
1 atoms in group select
if "${inside} == 0" then     "group select delete"     "variable select delete"     "next n"     "jump SELF jump"
group select delete
variable select delete
next n
jump SELF jump
variable select index $(random(1,atoms,364500):%.0f)
variable select index 105769
group select id ${select}
group select id 105769
1 atoms in group select
if "${inside} == 0" then     "group select delete"     "variable select delete"     "next n"     "jump SELF jump"
group select delete
variable select delete
next n
jump SELF jump
variable select index $(random(1,atoms,364500):%.0f)
variable select index 293447
group select id ${select}
group select id 293447
1 atoms in group select
if "${inside} == 0" then     "group select delete"     "variable select delete"     "next n"     "jump SELF jump"
group select delete
variable select delete
next n
jump SELF jump
variable select index $(random(1,atoms,364500):%.0f)
variable select index 230358
group select id ${select}
group select id 230358
1 atoms in group select
if "${inside} == 0" then     "group select delete"     "variable select delete"     "next n"     "jump SELF jump"
group select delete
variable select delete
next n
jump SELF jump
variable select index $(random(1,atoms,364500):%.0f)
variable select index 81580
group select id ${select}
group select id 81580
1 atoms in group select
if "${inside} == 0" then     "group select delete"     "variable select delete"     "next n"     "jump SELF jump"
group select delete
variable select delete
next n
jump SELF jump
variable select index $(random(1,atoms,364500):%.0f)
variable select index 259804
group select id ${select}
group select id 259804
1 atoms in group select
if "${inside} == 0" then     "group select delete"     "variable select delete"     "next n"     "jump SELF jump"
group select delete
variable select delete
next n
jump SELF jump
variable select index $(random(1,atoms,364500):%.0f)
variable select index 80268
group select id ${select}
group select id 80268
1 atoms in group select
if "${inside} == 0" then     "group select delete"     "variable select delete"     "next n"     "jump SELF jump"
group select delete
variable select delete
next n
jump SELF jump
variable select index $(random(1,atoms,364500):%.0f)
variable select index 158409
group select id ${select}
group select id 158409
1 atoms in group select
if "${inside} == 0" then     "group select delete"     "variable select delete"     "next n"     "jump SELF jump"
group select delete
variable select delete
next n
jump SELF jump
variable select index $(random(1,atoms,364500):%.0f)
variable select index 51989
group select id ${select}
group select id 51989
1 atoms in group select
if "${inside} == 0" then     "group select delete"     "variable select delete"     "next n"     "jump SELF jump"
group select delete
variable select delete
next n
jump SELF jump
variable select index $(random(1,atoms,364500):%.0f)
variable select index 237211
group select id ${select}
group select id 237211
1 atoms in group select
if "${inside} == 0" then     "group select delete"     "variable select delete"     "next n"     "jump SELF jump"
group select delete
variable select delete
next n
jump SELF jump
variable select index $(random(1,atoms,364500):%.0f)
variable select index 83914
group select id ${select}
group select id 83914
1 atoms in group select
if "${inside} == 0" then     "group select delete"     "variable select delete"     "next n"     "jump SELF jump"
group select delete
variable select delete
next n
jump SELF jump
variable select index $(random(1,atoms,364500):%.0f)
variable select index 132179
group select id ${select}
group select id 132179
1 atoms in group select
if "${inside} == 0" then     "group select delete"     "variable select delete"     "next n"     "jump SELF jump"
group select delete
variable select delete
next n
jump SELF jump
variable select index $(random(1,atoms,364500):%.0f)
variable select index 261402
group select id ${select}
group select id 261402
1 atoms in group select
if "${inside} == 0" then     "group select delete"     "variable select delete"     "next n"     "jump SELF jump"
group select delete
variable select delete
next n
jump SELF jump
variable select index $(random(1,atoms,364500):%.0f)
variable select index 13554
group select id ${select}
group select id 13554
1 atoms in group select
if "${inside} == 0" then     "group select delete"     "variable select delete"     "next n"     "jump SELF jump"
group select delete
variable select delete
next n
jump SELF jump
variable select index $(random(1,atoms,364500):%.0f)
variable select index 320685
group select id ${select}
group select id 320685
1 atoms in group select
if "${inside} == 0" then     "group select delete"     "variable select delete"     "next n"     "jump SELF jump"
group select delete
variable select delete
next n
jump SELF jump
variable select index $(random(1,atoms,364500):%.0f)
variable select index 228097
group select id ${select}
group select id 228097
1 atoms in group select
if "${inside} == 0" then     "group select delete"     "variable select delete"     "next n"     "jump SELF jump"
group select delete
variable select delete
next n
jump SELF jump
variable select index $(random(1,atoms,364500):%.0f)
variable select index 82910
group select id ${select}
group select id 82910
1 atoms in group select
if "${inside} == 0" then     "group select delete"     "variable select delete"     "next n"     "jump SELF jump"
group select delete
variable select delete
next n
jump SELF jump
variable select index $(random(1,atoms,364500):%.0f)
variable select index 153726
group select id ${select}
group select id 153726
1 atoms in group select
if "${inside} == 0" then     "group select delete"     "variable select delete"     "next n"     "jump SELF jump"
group select delete
variable select delete
next n
jump SELF jump
variable select index $(random(1,atoms,364500):%.0f)
variable select index 289593
group select id ${select}
group select id 289593
1 atoms in group select
if "${inside} == 0" then     "group select delete"     "variable select delete"     "next n"     "jump SELF jump"
group select delete
variable select delete
next n
jump SELF jump
variable select index $(random(1,atoms,364500):%.0f)
variable select index 83891
group select id ${select}
group select id 83891
1 atoms in group select
if "${inside} == 0" then     "group select delete"     "variable select delete"     "next n"     "jump SELF jump"
group select delete
variable select delete
next n
jump SELF jump
variable select index $(random(1,atoms,364500):%.0f)
variable select index 200295
group select id ${select}
group select id 200295
1 atoms in group select
if "${inside} == 0" then     "group select delete"     "variable select delete"     "next n"     "jump SELF jump"
group select delete
variable select delete
next n
jump SELF jump
variable select index $(random(1,atoms,364500):%.0f)
variable select index 305438
group select id ${select}
group select id 305438
1 atoms in group select
if "${inside} == 0" then     "group select delete"     "variable select delete"     "next n"     "jump SELF jump"
group select delete
variable select delete
next n
jump SELF jump
variable select index $(random(1,atoms,364500):%.0f)
variable select index 354614
group select id ${select}
group select id 354614
1 atoms in group select
if "${inside} == 0" then     "group select delete"     "variable select delete"     "next n"     "jump SELF jump"
group select delete
variable select delete
next n
jump SELF jump
variable select index $(random(1,atoms,364500):%.0f)
variable select index 273486
group select id ${select}
group select id 273486
1 atoms in group select
if "${inside} == 0" then     "group select delete"     "variable select delete"     "next n"     "jump SELF jump"
group select delete
variable select delete
next n
jump SELF jump
variable select index $(random(1,atoms,364500):%.0f)
variable select index 305520
group select id ${select}
group select id 305520
1 atoms in group select
if "${inside} == 0" then     "group select delete"     "variable select delete"     "next n"     "jump SELF jump"
group select delete
variable select delete
next n
jump SELF jump
variable select index $(random(1,atoms,364500):%.0f)
variable select index 315690
group select id ${select}
group select id 315690
1 atoms in group select
if "${inside} == 0" then     "group select delete"     "variable select delete"     "next n"     "jump SELF jump"
group select delete
variable select delete
next n
jump SELF jump
variable select index $(random(1,atoms,364500):%.0f)
variable select index 80567
group select id ${select}
group select id 80567
1 atoms in group select
if "${inside} == 0" then     "group select delete"     "variable select delete"     "next n"     "jump SELF jump"
group select delete
variable select delete
next n
jump SELF jump
variable select index $(random(1,atoms,364500):%.0f)
variable select index 55067
group select id ${select}
group select id 55067
1 atoms in group select
if "${inside} == 0" then     "group select delete"     "variable select delete"     "next n"     "jump SELF jump"
group select delete
variable select delete
next n
jump SELF jump
variable select index $(random(1,atoms,364500):%.0f)
variable select index 325149
group select id ${select}
group select id 325149
1 atoms in group select
if "${inside} == 0" then     "group select delete"     "variable select delete"     "next n"     "jump SELF jump"
group select delete
variable select delete
next n
jump SELF jump
variable select index $(random(1,atoms,364500):%.0f)
variable select index 187938
group select id ${select}
group select id 187938
1 atoms in group select
if "${inside} == 0" then     "group select delete"     "variable select delete"     "next n"     "jump SELF jump"
group select delete
variable select delete
next n
jump SELF jump
variable select index $(random(1,atoms,364500):%.0f)
variable select index 99188
group select id ${select}
group select id 99188
1 atoms in group select
if "${inside} == 0" then     "group select delete"     "variable select delete"     "next n"     "jump SELF jump"
group select delete
variable select delete
next n
jump SELF jump
variable select index $(random(1,atoms,364500):%.0f)
variable select index 289179
group select id ${select}
group select id 289179
1 atoms in group select
if "${inside} == 0" then     "group select delete"     "variable select delete"     "next n"     "jump SELF jump"
group select delete
variable select delete
next n
jump SELF jump
variable select index $(random(1,atoms,364500):%.0f)
variable select index 210969
group select id ${select}
group select id 210969
1 atoms in group select
if "${inside} == 0" then     "group select delete"     "variable select delete"     "next n"     "jump SELF jump"
group select delete
variable select delete
next n
jump SELF jump
variable select index $(random(1,atoms,364500):%.0f)
variable select index 145645
group select id ${select}
group select id 145645
1 atoms in group select
if "${inside} == 0" then     "group select delete"     "variable select delete"     "next n"     "jump SELF jump"
group select delete
variable select delete
next n
jump SELF jump
variable select index $(random(1,atoms,364500):%.0f)
variable select index 259004
group select id ${select}
group select id 259004
1 atoms in group select
if "${inside} == 0" then     "group select delete"     "variable select delete"     "next n"     "jump SELF jump"
group select delete
variable select delete
next n
jump SELF jump
variable select index $(random(1,atoms,364500):%.0f)
variable select index 35765
group select id ${select}
group select id 35765
1 atoms in group select
if "${inside} == 0" then     "group select delete"     "variable select delete"     "next n"     "jump SELF jump"
group select delete
variable select delete
next n
jump SELF jump
variable select index $(random(1,atoms,364500):%.0f)
variable select index 233291
group select id ${select}
group select id 233291
1 atoms in group select
if "${inside} == 0" then     "group select delete"     "variable select delete"     "next n"     "jump SELF jump"
group select delete
variable select delete
next n
jump SELF jump
variable select index $(random(1,atoms,364500):%.0f)
variable select index 181832
group select id ${select}
group select id 181832
1 atoms in group select
if "${inside} == 0" then     "group select delete"     "variable select delete"     "next n"     "jump SELF jump"
group select delete
variable select delete
next n
jump SELF jump
variable select index $(random(1,atoms,364500):%.0f)
variable select index 277428
group select id ${select}
group select id 277428
1 atoms in group select
if "${inside} == 0" then     "group select delete"     "variable select delete"     "next n"     "jump SELF jump"
group select delete
variable select delete
next n
jump SELF jump
variable select index $(random(1,atoms,364500):%.0f)
variable select index 285218
group select id ${select}
group select id 285218
1 atoms in group select
if "${inside} == 0" then     "group select delete"     "variable select delete"     "next n"     "jump SELF jump"
group select delete
variable select delete
next n
jump SELF jump
variable select index $(random(1,atoms,364500):%.0f)
variable select index 180204
group select id ${select}
group select id 180204
1 atoms in group select
if "${inside} == 0" then     "group select delete"     "variable select delete"     "next n"     "jump SELF jump"
group select delete
variable select delete
next n
jump SELF jump
variable select index $(random(1,atoms,364500):%.0f)
variable select index 57863
group select id ${select}
group select id 57863
1 atoms in group select
if "${inside} == 0" then     "group select delete"     "variable select delete"     "next n"     "jump SELF jump"
group select delete
variable select delete
next n
jump SELF jump
variable select index $(random(1,atoms,364500):%.0f)
variable select index 318461
group select id ${select}
group select id 318461
1 atoms in group select
if "${inside} == 0" then     "group select delete"     "variable select delete"     "next n"     "jump SELF jump"
group select delete
variable select delete
next n
jump SELF jump
variable select index $(random(1,atoms,364500):%.0f)
variable select index 66303
group select id ${select}
group select id 66303
1 atoms in group select
if "${inside} == 0" then     "group select delete"     "variable select delete"     "next n"     "jump SELF jump"
group select delete
variable select delete
next n
jump SELF jump
variable select index $(random(1,atoms,364500):%.0f)
variable select index 341615
group select id ${select}
group select id 341615
1 atoms in group select
if "${inside} == 0" then     "group select delete"     "variable select delete"     "next n"     "jump SELF jump"
group select delete
variable select delete
next n
jump SELF jump
variable select index $(random(1,atoms,364500):%.0f)
variable select index 334443
group select id ${select}
group select id 334443
1 atoms in group select
if "${inside} == 0" then     "group select delete"     "variable select delete"     "next n"     "jump SELF jump"
group select delete
variable select delete
next n
jump SELF jump
variable select index $(random(1,atoms,364500):%.0f)
variable select index 214018
group select id ${select}
group select id 214018
1 atoms in group select
if "${inside} == 0" then     "group select delete"     "variable select delete"     "next n"     "jump SELF jump"
group select delete
variable select delete
next n
jump SELF jump
variable select index $(random(1,atoms,364500):%.0f)
variable select index 146920
group select id ${select}
group select id 146920
1 atoms in group select
if "${inside} == 0" then     "group select delete"     "variable select delete"     "next n"     "jump SELF jump"
group select delete
variable select delete
next n
jump SELF jump
variable select index $(random(1,atoms,364500):%.0f)
variable select index 142389
group select id ${select}
group select id 142389
1 atoms in group select
if "${inside} == 0" then     "group select delete"     "variable select delete"     "next n"     "jump SELF jump"
group select delete
variable select delete
next n
jump SELF jump
variable select index $(random(1,atoms,364500):%.0f)
variable select index 218649
group select id ${select}
group select id 218649
1 atoms in group select
if "${inside} == 0" then     "group select delete"     "variable select delete"     "next n"     "jump SELF jump"
group select delete
variable select delete
next n
jump SELF jump
variable select index $(random(1,atoms,364500):%.0f)
variable select index 137308
group select id ${select}
group select id 137308
1 atoms in group select
if "${inside} == 0" then     "group select delete"     "variable select delete"     "next n"     "jump SELF jump"
group select delete
variable select delete
next n
jump SELF jump
variable select index $(random(1,atoms,364500):%.0f)
variable select index 350829
group select id ${select}
group select id 350829
1 atoms in group select
if "${inside} == 0" then     "group select delete"     "variable select delete"     "next n"     "jump SELF jump"
group select delete
variable select delete
next n
jump SELF jump
variable select index $(random(1,atoms,364500):%.0f)
variable select index 232329
group select id ${select}
group select id 232329
1 atoms in group select
if "${inside} == 0" then     "group select delete"     "variable select delete"     "next n"     "jump SELF jump"
group select delete
variable select delete
next n
jump SELF jump
variable select index $(random(1,atoms,364500):%.0f)
variable select index 236135
group select id ${select}
group select id 236135
1 atoms in group select
if "${inside} == 0" then     "group select delete"     "variable select delete"     "next n"     "jump SELF jump"
group select delete
variable select delete
next n
jump SELF jump
variable select index $(random(1,atoms,364500):%.0f)
variable select index 162434
group select id ${select}
group select id 162434
1 atoms in group select
if "${inside} == 0" then     "group select delete"     "variable select delete"     "next n"     "jump SELF jump"
group select delete
variable select delete
next n
jump SELF jump
variable select index $(random(1,atoms,364500):%.0f)
variable select index 312377
group select id ${select}
group select id 312377
1 atoms in group select
if "${inside} == 0" then     "group select delete"     "variable select delete"     "next n"     "jump SELF jump"
group select delete
variable select delete
next n
jump SELF jump
variable select index $(random(1,atoms,364500):%.0f)
variable select index 239246
group select id ${select}
group select id 239246
1 atoms in group select
if "${inside} == 0" then     "group select delete"     "variable select delete"     "next n"     "jump SELF jump"
group select delete
variable select delete
next n
jump SELF jump
variable select index $(random(1,atoms,364500):%.0f)
variable select index 75912
group select id ${select}
group select id 75912
1 atoms in group select
if "${inside} == 0" then     "group select delete"     "variable select delete"     "next n"     "jump SELF jump"
group select delete
variable select delete
next n
jump SELF jump
variable select index $(random(1,atoms,364500):%.0f)
variable select index 100786
group select id ${select}
group select id 100786
1 atoms in group select
if "${inside} == 0" then     "group select delete"     "variable select delete"     "next n"     "jump SELF jump"
group select delete
variable select delete
next n
jump SELF jump
variable select index $(random(1,atoms,364500):%.0f)
variable select index 177289
group select id ${select}
group select id 177289
1 atoms in group select
if "${inside} == 0" then     "group select delete"     "variable select delete"     "next n"     "jump SELF jump"
group select delete
variable select delete
next n
jump SELF jump
variable select index $(random(1,atoms,364500):%.0f)
variable select index 181581
group select id ${select}
group select id 181581
1 atoms in group select
if "${inside} == 0" then     "group select delete"     "variable select delete"     "next n"     "jump SELF jump"
group select delete
variable select delete
next n
jump SELF jump
variable select index $(random(1,atoms,364500):%.0f)
variable select index 322296
group select id ${select}
group select id 322296
1 atoms in group select
if "${inside} == 0" then     "group select delete"     "variable select delete"     "next n"     "jump SELF jump"
group select delete
variable select delete
next n
jump SELF jump
variable select index $(random(1,atoms,364500):%.0f)
variable select index 326564
group select id ${select}
group select id 326564
1 atoms in group select
if "${inside} == 0" then     "group select delete"     "variable select delete"     "next n"     "jump SELF jump"
group select delete
variable select delete
next n
jump SELF jump
variable select index $(random(1,atoms,364500):%.0f)
variable select index 312810
group select id ${select}
group select id 312810
1 atoms in group select
if "${inside} == 0" then     "group select delete"     "variable select delete"     "next n"     "jump SELF jump"
group select delete
variable select delete
next n
jump SELF jump
variable select index $(random(1,atoms,364500):%.0f)
variable select index 269183
group select id ${select}
group select id 269183
1 atoms in group select
if "${inside} == 0" then     "group select delete"     "variable select delete"     "next n"     "jump SELF jump"
group select delete
variable select delete
next n
jump SELF jump
variable select index $(random(1,atoms,364500):%.0f)
variable select index 219492
group select id ${select}
group select id 219492
1 atoms in group select
if "${inside} == 0" then     "group select delete"     "variable select delete"     "next n"     "jump SELF jump"
group select delete
variable select delete
next n
jump SELF jump
variable select index $(random(1,atoms,364500):%.0f)
variable select index 33698
group select id ${select}
group select id 33698
1 atoms in group select
if "${inside} == 0" then     "group select delete"     "variable select delete"     "next n"     "jump SELF jump"
group select delete
variable select delete
next n
jump SELF jump
variable select index $(random(1,atoms,364500):%.0f)
variable select index 221633
group select id ${select}
group select id 221633
1 atoms in group select
if "${inside} == 0" then     "group select delete"     "variable select delete"     "next n"     "jump SELF jump"
group select delete
variable select delete
next n
jump SELF jump
variable select index $(random(1,atoms,364500):%.0f)
variable select index 187810
group select id ${select}
group select id 187810
1 atoms in group select
if "${inside} == 0" then     "group select delete"     "variable select delete"     "next n"     "jump SELF jump"
group select delete
variable select delete
next n
jump SELF jump
variable select index $(random(1,atoms,364500):%.0f)
variable select index 312482
group select id ${select}
group select id 312482
1 atoms in group select
if "${inside} == 0" then     "group select delete"     "variable select delete"     "next n"     "jump SELF jump"
group select delete
variable select delete
next n
jump SELF jump
variable select index $(random(1,atoms,364500):%.0f)
variable select index 235317
group select id ${select}
group select id 235317
1 atoms in group select
if "${inside} == 0" then     "group select delete"     "variable select delete"     "next n"     "jump SELF jump"
group select delete
variable select delete
next n
jump SELF jump
variable select index $(random(1,atoms,364500):%.0f)
variable select index 312789
group select id ${select}
group select id 312789
1 atoms in group select
if "${inside} == 0" then     "group select delete"     "variable select delete"     "next n"     "jump SELF jump"
group select delete
variable select delete
next n
jump SELF jump
variable select index $(random(1,atoms,364500):%.0f)
variable select index 117032
group select id ${select}
group select id 117032
1 atoms in group select
if "${inside} == 0" then     "group select delete"     "variable select delete"     "next n"     "jump SELF jump"
group select delete
variable select delete
next n
jump SELF jump
variable select index $(random(1,atoms,364500):%.0f)
variable select index 224657
group select id ${select}
group select id 224657
1 atoms in group select
if "${inside} == 0" then     "group select delete"     "variable select delete"     "next n"     "jump SELF jump"
group select delete
variable select delete
next n
jump SELF jump
variable select index $(random(1,atoms,364500):%.0f)
variable select index 110155
group select id ${select}
group select id 110155
1 atoms in group select
if "${inside} == 0" then     "group select delete"     "variable select delete"     "next n"     "jump SELF jump"
group select delete
variable select delete
next n
jump SELF jump
variable select index $(random(1,atoms,364500):%.0f)
variable select index 206248
group select id ${select}
group select id 206248
1 atoms in group select
if "${inside} == 0" then     "group select delete"     "variable select delete"     "next n"     "jump SELF jump"
group select delete
variable select delete
next n
jump SELF jump
variable select index $(random(1,atoms,364500):%.0f)
variable select index 218847
group select id ${select}
group select id 218847
1 atoms in group select
if "${inside} == 0" then     "group select delete"     "variable select delete"     "next n"     "jump SELF jump"
group select delete
variable select delete
next n
jump SELF jump
variable select index $(random(1,atoms,364500):%.0f)
variable select index 115902
group select id ${select}
group select id 115902
1 atoms in group select
if "${inside} == 0" then     "group select delete"     "variable select delete"     "next n"     "jump SELF jump"
group select delete
variable select delete
next n
jump SELF jump
variable select index $(random(1,atoms,364500):%.0f)
variable select index 218890
group select id ${select}
group select id 218890
1 atoms in group select
if "${inside} == 0" then     "group select delete"     "variable select delete"     "next n"     "jump SELF jump"
group select delete
variable select delete
next n
jump SELF jump
variable select index $(random(1,atoms,364500):%.0f)
variable select index 296729
group select id ${select}
group select id 296729
1 atoms in group select
if "${inside} == 0" then     "group select delete"     "variable select delete"     "next n"     "jump SELF jump"
group select delete
variable select delete
next n
jump SELF jump
variable select index $(random(1,atoms,364500):%.0f)
variable select index 54051
group select id ${select}
group select id 54051
1 atoms in group select
if "${inside} == 0" then     "group select delete"     "variable select delete"     "next n"     "jump SELF jump"
group select delete
variable select delete
next n
jump SELF jump
variable select index $(random(1,atoms,364500):%.0f)
variable select index 229789
group select id ${select}
group select id 229789
1 atoms in group select
if "${inside} == 0" then     "group select delete"     "variable select delete"     "next n"     "jump SELF jump"
group select delete
variable select delete
next n
jump SELF jump
variable select index $(random(1,atoms,364500):%.0f)
variable select index 239454
group select id ${select}
group select id 239454
1 atoms in group select
if "${inside} == 0" then     "group select delete"     "variable select delete"     "next n"     "jump SELF jump"
[...]
Neighs:    5.84525e+06 ave 5.88925e+06 max 5.79447e+06 min
Histogram: 1 0 0 1 0 0 0 1 0 1

Total # of neighbors = 23380996
Ave neighs/atom = 64.145394
Neighbor list builds = 33
Dangerous builds = 0
if '$(time)>25' then 'write_data NiCoCrFe_pka_5keV_final.lmp' 'quit' 
No /omp style for force computation currently active
Per MPI rank memory allocation (min/avg/max) = 80.02 | 80.51 | 80.8 Mbytes
     Time         Step          Temp          Press          TotEng    
 11.991111          36000   365.03029     -26443.637     -1554633.8    
 12.08176           36100   364.6808      -26407.236     -1554633.7    
 12.226509          36200   364.73494     -26406.067     -1554633.8    
 12.378334          36300   364.78126     -26431.253     -1554633.7    
 12.535175          36400   364.73788     -26483.662     -1554633.8    
 12.68886           36500   364.4042      -26413.243     -1554633.7    
 12.839827          36600   364.81194     -26467.927     -1554633.8    
 12.994453          36700   364.1442      -26388.022     -1554633.8    
 13.14824           36800   364.92312     -26405.182     -1554633.8    
 13.306363          36900   364.16727     -26371.167     -1554633.8    
 13.459477          37000   364.36492     -26371.829     -1554633.8    
Loop time of 357.152 on 16 procs for 1000 steps with 364500 atoms

Performance: 0.371 ns/day, 64.705 hours/ns, 2.800 timesteps/s, 1.021 Matom-step/s
97.9% CPU use with 4 MPI tasks x 4 OpenMP threads

MPI task timing breakdown:
Section |  min time  |  avg time  |  max time  |%varavg| %total
---------------------------------------------------------------
Pair    | 327.96     | 329.44     | 330.78     |   7.3 | 92.24
Neigh   | 4.7149     | 4.7866     | 4.8779     |   3.1 |  1.34
Comm    | 10.284     | 11.739     | 13.273     |  39.9 |  3.29
Output  | 0.26298    | 0.28459    | 0.30552    |   3.0 |  0.08
Modify  | 9.3042     | 9.3696     | 9.4127     |   1.5 |  2.62
Other   |            | 1.534      |            |       |  0.43

Nlocal:          91125 ave       91462 max       90832 min
Histogram: 2 0 0 0 0 0 0 0 1 1
Nghost:        40020.2 ave       40316 max       39682 min
Histogram: 1 1 0 0 0 0 0 0 0 2
Neighs:     5.8454e+06 ave 5.86331e+06 max 5.82464e+06 min
Histogram: 1 0 1 0 0 0 0 0 0 2

Total # of neighbors = 23381602
Ave neighs/atom = 64.147056
Neighbor list builds = 33
Dangerous builds = 0
if '$(time)>25' then 'write_data NiCoCrFe_pka_5keV_final.lmp' 'quit' 
No /omp style for force computation currently active
Per MPI rank memory allocation (min/avg/max) = 80.02 | 80.51 | 80.8 Mbytes
     Time         Step          Temp          Press          TotEng    
 13.459477          37000   364.36492     -26371.829     -1554633.8    
 13.61382           37100   365.00477     -26440.791     -1554633.8    
 13.769614          37200   364.56201     -26401.089     -1554633.8    
 13.929408          37300   364.2243      -26418.118     -1554633.8    
 14.083822          37400   365.21598     -26448.765     -1554633.8    
 14.235781          37500   364.58681     -26433.828     -1554633.8    
 14.389198          37600   364.61719     -26423.199     -1554633.8    
 14.545476          37700   364.24393     -26448.426     -1554633.8    
 14.703037          37800   364.29797     -26393.471     -1554633.7    
 14.855807          37900   364.27335     -26413.801     -1554633.8    
 15.013064          38000   364.93842     -26424.699     -1554633.8    
Loop time of 394.508 on 16 procs for 1000 steps with 364500 atoms

Performance: 0.346 ns/day, 69.268 hours/ns, 2.535 timesteps/s, 923.936 katom-step/s
97.5% CPU use with 4 MPI tasks x 4 OpenMP threads

MPI task timing breakdown:
Section |  min time  |  avg time  |  max time  |%varavg| %total
---------------------------------------------------------------
Pair    | 363.54     | 365.84     | 368.6      |   9.9 | 92.73
Neigh   | 4.689      | 4.7136     | 4.7419     |   1.0 |  1.19
Comm    | 10.033     | 12.773     | 15.039     |  52.7 |  3.24
Output  | 0.25998    | 0.28111    | 0.30181    |   2.9 |  0.07
Modify  | 9.317      | 9.3525     | 9.408      |   1.1 |  2.37
Other   |            | 1.547      |            |       |  0.39

Nlocal:          91125 ave       91481 max       90738 min
Histogram: 1 0 1 0 0 0 0 0 1 1
Nghost:        40019.8 ave       40408 max       39662 min
Histogram: 1 1 0 0 0 0 0 1 0 1
Neighs:    5.84504e+06 ave 5.87719e+06 max 5.81772e+06 min
Histogram: 2 0 0 0 0 0 0 0 1 1

Total # of neighbors = 23380173
Ave neighs/atom = 64.143136
Neighbor list builds = 33
Dangerous builds = 0
if '$(time)>25' then 'write_data NiCoCrFe_pka_5keV_final.lmp' 'quit' 
No /omp style for force computation currently active
Per MPI rank memory allocation (min/avg/max) = 80.02 | 80.51 | 80.8 Mbytes
     Time         Step          Temp          Press          TotEng    
 15.013064          38000   364.93842     -26424.699     -1554633.8    
 15.170982          38100   364.90671     -26425.358     -1554633.8    
 15.32369           38200   363.84791     -26377.271     -1554633.7    
 15.481731          38300   364.4633      -26427.234     -1554633.8    
 15.631425          38400   364.59671     -26402.107     -1554633.8    
 15.780637          38500   364.19054     -26341.34      -1554633.7    
 15.935681          38600   364.00976     -26439.817     -1554633.7    
 16.092668          38700   364.93875     -26436.937     -1554633.8    
 16.253662          38800   364.36003     -26365.852     -1554633.7    
 16.408352          38900   364.38291     -26416.531     -1554633.7    
 16.566557          39000   364.35117     -26442.716     -1554633.7    
Loop time of 372.777 on 16 procs for 1000 steps with 364500 atoms

Performance: 0.367 ns/day, 65.355 hours/ns, 2.683 timesteps/s, 977.796 katom-step/s
97.6% CPU use with 4 MPI tasks x 4 OpenMP threads

MPI task timing breakdown:
Section |  min time  |  avg time  |  max time  |%varavg| %total
---------------------------------------------------------------
Pair    | 342.01     | 344.66     | 346.02     |   8.7 | 92.46
Neigh   | 4.6203     | 4.6927     | 4.7999     |   3.2 |  1.26
Comm    | 10.832     | 12.131     | 14.682     |  45.1 |  3.25
Output  | 0.3571     | 0.37926    | 0.40087    |   2.6 |  0.10
Modify  | 9.3166     | 9.3702     | 9.3993     |   1.1 |  2.51
Other   |            | 1.54       |            |       |  0.41

Nlocal:          91125 ave       91258 max       91048 min
Histogram: 2 0 0 1 0 0 0 0 0 1
Nghost:        40019.8 ave       40094 max       39890 min
Histogram: 1 0 0 0 0 0 1 0 0 2
Neighs:    5.84563e+06 ave 5.86744e+06 max 5.83007e+06 min
Histogram: 1 0 1 0 1 0 0 0 0 1

Total # of neighbors = 23382538
Ave neighs/atom = 64.149624
Neighbor list builds = 33
Dangerous builds = 0
if '$(time)>25' then 'write_data NiCoCrFe_pka_5keV_final.lmp' 'quit' 
No /omp style for force computation currently active
Per MPI rank memory allocation (min/avg/max) = 80.02 | 80.51 | 80.8 Mbytes
     Time         Step          Temp          Press          TotEng    
 16.566557          39000   364.35117     -26442.716     -1554633.7    
 16.726524          39100   363.95206     -26350.014     -1554633.7    
 16.881605          39200   364.65078     -26427.472     -1554633.7    
 17.038379          39300   364.76417     -26496.765     -1554633.7    
 17.196202          39400   364.36141     -26409.231     -1554633.7    
 17.35496           39500   363.97819     -26428.541     -1554633.7    
 17.512313          39600   365.00386     -26398.016     -1554633.7    
 17.670369          39700   364.31964     -26425.627     -1554633.7    
 17.825161          39800   364.24291     -26390.901     -1554633.7    
 17.980298          39900   364.32568     -26378.881     -1554633.7    
 18.138265          40000   363.85741     -26353.917     -1554633.7    
Loop time of 386.614 on 16 procs for 1000 steps with 364500 atoms

Performance: 0.340 ns/day, 70.620 hours/ns, 2.587 timesteps/s, 942.802 katom-step/s
97.6% CPU use with 4 MPI tasks x 4 OpenMP threads

MPI task timing breakdown:
Section |  min time  |  avg time  |  max time  |%varavg| %total
---------------------------------------------------------------
Pair    | 356.79     | 358.63     | 360.26     |   6.6 | 92.76
Neigh   | 4.7129     | 4.7364     | 4.7581     |   0.8 |  1.23
Comm    | 10.466     | 12.057     | 13.863     |  35.2 |  3.12
Output  | 0.25407    | 0.27506    | 0.29597    |   3.0 |  0.07
Modify  | 9.339      | 9.374      | 9.4057     |   1.0 |  2.42
Other   |            | 1.54       |            |       |  0.40

Nlocal:          91125 ave       91499 max       90628 min
Histogram: 1 0 0 0 0 1 0 1 0 1
Nghost:        40019.8 ave       40518 max       39644 min
Histogram: 1 0 1 0 1 0 0 0 0 1
Neighs:    5.84532e+06 ave 5.86932e+06 max 5.80868e+06 min
Histogram: 1 0 0 0 0 0 1 1 0 1

Total # of neighbors = 23381264
Ave neighs/atom = 64.146129
Neighbor list builds = 33
Dangerous builds = 0
if '$(time)>25' then 'write_data NiCoCrFe_pka_5keV_final.lmp' 'quit' 
No /omp style for force computation currently active
Per MPI rank memory allocation (min/avg/max) = 80.02 | 80.51 | 80.8 Mbytes
     Time         Step          Temp          Press          TotEng    
 18.138265          40000   363.85741     -26353.917     -1554633.7    
 18.295497          40100   363.91317     -26408.215     -1554633.6    
 18.45291           40200   364.94465     -26450.372     -1554633.7    
 18.607259          40300   364.60147     -26397.312     -1554633.7    
 18.761261          40400   364.47056     -26396.854     -1554633.7    
 18.915265          40500   364.71059     -26360.568     -1554633.7    
 19.068038          40600   364.84157     -26395.769     -1554633.7    
 19.22606           40700   363.99798     -26442.909     -1554633.7    
 19.380047          40800   364.61157     -26447.063     -1554633.7    
 19.537237          40900   364.38637     -26376.67      -1554633.7    
 19.700057          41000   364.92913     -26497.149     -1554633.8    
Loop time of 386.725 on 16 procs for 1000 steps with 364500 atoms

Performance: 0.331 ns/day, 72.407 hours/ns, 2.586 timesteps/s, 942.530 katom-step/s
97.7% CPU use with 4 MPI tasks x 4 OpenMP threads

MPI task timing breakdown:
Section |  min time  |  avg time  |  max time  |%varavg| %total
---------------------------------------------------------------
Pair    | 357.9      | 358.76     | 359.67     |   3.5 | 92.77
Neigh   | 4.6699     | 4.7518     | 4.8624     |   3.2 |  1.23
Comm    | 11.114     | 12.016     | 12.893     |  18.8 |  3.11
Output  | 0.2703     | 0.29084    | 0.31098    |   2.8 |  0.08
Modify  | 9.3483     | 9.3717     | 9.3963     |   0.6 |  2.42
Other   |            | 1.535      |            |       |  0.40

Nlocal:          91125 ave       91387 max       90879 min
Histogram: 1 0 1 0 0 0 0 1 0 1
Nghost:        40020.8 ave       40264 max       39763 min
Histogram: 1 0 1 0 0 0 0 1 0 1
Neighs:    5.84502e+06 ave 5.88097e+06 max 5.81494e+06 min
Histogram: 2 0 0 0 0 0 0 1 0 1

Total # of neighbors = 23380099
Ave neighs/atom = 64.142933
Neighbor list builds = 33
Dangerous builds = 0
if '$(time)>25' then 'write_data NiCoCrFe_pka_5keV_final.lmp' 'quit' 
No /omp style for force computation currently active
Per MPI rank memory allocation (min/avg/max) = 80.02 | 80.51 | 80.8 Mbytes
     Time         Step          Temp          Press          TotEng    
 19.700057          41000   364.92913     -26497.149     -1554633.8    
 19.854387          41100   364.42537     -26398.683     -1554633.7    
 20.00671           41200   365.26713     -26460.176     -1554633.7    
 20.164928          41300   364.50939     -26404.393     -1554633.7    
 20.325379          41400   364.47061     -26416.093     -1554633.7    
 20.476988          41500   364.90342     -26449.198     -1554633.8    
 20.634335          41600   364.58532     -26387.92      -1554633.7    
 20.791464          41700   364.074       -26353.942     -1554633.7    
 20.94932           41800   364.33387     -26410.911     -1554633.7    
 21.105192          41900   364.50189     -26439.39      -1554633.8    
 21.262118          42000   365.16136     -26467.418     -1554633.8    
Loop time of 387.021 on 16 procs for 1000 steps with 364500 atoms

Performance: 0.350 ns/day, 68.568 hours/ns, 2.584 timesteps/s, 941.808 katom-step/s
97.7% CPU use with 4 MPI tasks x 4 OpenMP threads

MPI task timing breakdown:
Section |  min time  |  avg time  |  max time  |%varavg| %total
---------------------------------------------------------------
Pair    | 355.63     | 358.65     | 361.06     |  11.5 | 92.67
Neigh   | 4.7275     | 4.7558     | 4.7796     |   0.9 |  1.23
Comm    | 9.9739     | 12.43      | 15.464     |  62.0 |  3.21
Output  | 0.24843    | 0.26946    | 0.29068    |   3.0 |  0.07
Modify  | 9.3639     | 9.3833     | 9.4261     |   0.8 |  2.42
Other   |            | 1.533      |            |       |  0.40

Nlocal:          91125 ave       91627 max       90499 min
Histogram: 1 0 0 0 0 1 1 0 0 1
Nghost:        40021.2 ave       40647 max       39519 min
Histogram: 1 0 0 1 1 0 0 0 0 1
Neighs:    5.84583e+06 ave  5.8815e+06 max 5.80067e+06 min
Histogram: 1 0 0 0 0 1 0 1 0 1

Total # of neighbors = 23383308
Ave neighs/atom = 64.151737
Neighbor list builds = 33
Dangerous builds = 0
if '$(time)>25' then 'write_data NiCoCrFe_pka_5keV_final.lmp' 'quit' 
No /omp style for force computation currently active
Per MPI rank memory allocation (min/avg/max) = 80.02 | 80.51 | 80.8 Mbytes
     Time         Step          Temp          Press          TotEng    
 21.262118          42000   365.16136     -26467.418     -1554633.8    
 21.41772           42100   364.66086     -26403.737     -1554633.7    
 21.568624          42200   363.91811     -26340.042     -1554633.7    
 21.72386           42300   364.60327     -26370.082     -1554633.8    
 21.883245          42400   363.60939     -26320.01      -1554633.7    
 22.040806          42500   364.55402     -26416.502     -1554633.7    
 22.199102          42600   364.10417     -26410.13      -1554633.7    
 22.356688          42700   364.66319     -26407.111     -1554633.7    
 22.512153          42800   364.86361     -26417.19      -1554633.7    
 22.669326          42900   364.18936     -26412.913     -1554633.7    
 22.826976          43000   365.3386      -26451.681     -1554633.8    
Loop time of 391.793 on 16 procs for 1000 steps with 364500 atoms

Performance: 0.290 ns/day, 82.847 hours/ns, 2.552 timesteps/s, 930.339 katom-step/s
97.7% CPU use with 4 MPI tasks x 4 OpenMP threads

MPI task timing breakdown:
Section |  min time  |  avg time  |  max time  |%varavg| %total
---------------------------------------------------------------
Pair    | 361.14     | 363.45     | 365.35     |   8.3 | 92.76
Neigh   | 4.7773     | 4.8438     | 4.9192     |   2.3 |  1.24
Comm    | 10.375     | 12.317     | 14.686     |  46.3 |  3.14
Output  | 0.26115    | 0.28183    | 0.3024     |   2.9 |  0.07
Modify  | 9.3279     | 9.3642     | 9.3886     |   0.8 |  2.39
Other   |            | 1.541      |            |       |  0.39

Nlocal:          91125 ave       91495 max       90688 min
Histogram: 1 0 0 0 0 1 1 0 0 1
Nghost:        40020.8 ave       40456 max       39653 min
Histogram: 1 0 0 1 1 0 0 0 0 1
Neighs:    5.84647e+06 ave 5.88711e+06 max 5.80048e+06 min
Histogram: 1 0 0 1 0 0 0 1 0 1

Total # of neighbors = 23385875
Ave neighs/atom = 64.158779
Neighbor list builds = 33
Dangerous builds = 0
if '$(time)>25' then 'write_data NiCoCrFe_pka_5keV_final.lmp' 'quit' 
No /omp style for force computation currently active
Per MPI rank memory allocation (min/avg/max) = 80.02 | 80.51 | 80.8 Mbytes
     Time         Step          Temp          Press          TotEng    
 22.826976          43000   365.3386      -26451.681     -1554633.8    
 22.980166          43100   364.10491     -26386.958     -1554633.7    
 23.138341          43200   364.1787      -26427.059     -1554633.7    
 23.296804          43300   364.96613     -26460.948     -1554633.7    
 23.451225          43400   364.71173     -26448.226     -1554633.7    
 23.606865          43500   364.42266     -26410.892     -1554633.7    
 23.762056          43600   364.65651     -26413.161     -1554633.7    
 23.914219          43700   364.40206     -26333.213     -1554633.7    
 24.069281          43800   364.027       -26383.37      -1554633.7    
 24.222053          43900   364.10445     -26390.824     -1554633.7    
 24.374588          44000   364.49287     -26450.84      -1554633.7    
Loop time of 357.551 on 16 procs for 1000 steps with 364500 atoms

Performance: 0.367 ns/day, 65.323 hours/ns, 2.797 timesteps/s, 1.019 Matom-step/s
97.7% CPU use with 4 MPI tasks x 4 OpenMP threads

MPI task timing breakdown:
Section |  min time  |  avg time  |  max time  |%varavg| %total
---------------------------------------------------------------
Pair    | 328.85     | 330.14     | 331.66     |   6.5 | 92.33
Neigh   | 4.6472     | 4.7092     | 4.7591     |   2.0 |  1.32
Comm    | 9.9851     | 11.497     | 12.77      |  35.3 |  3.22
Output  | 0.24818    | 0.2698     | 0.29241    |   3.2 |  0.08
Modify  | 9.3696     | 9.3922     | 9.4299     |   0.7 |  2.63
Other   |            | 1.54       |            |       |  0.43

Nlocal:          91125 ave       91750 max       90465 min
Histogram: 1 0 0 0 0 2 0 0 0 1
Nghost:        40022.5 ave       40682 max       39397 min
Histogram: 1 0 0 0 2 0 0 0 0 1
Neighs:    5.84615e+06 ave  5.8903e+06 max 5.79943e+06 min
Histogram: 1 0 0 0 1 0 1 0 0 1

Total # of neighbors = 23384609
Ave neighs/atom = 64.155306
Neighbor list builds = 33
Dangerous builds = 0
if '$(time)>25' then 'write_data NiCoCrFe_pka_5keV_final.lmp' 'quit' 
No /omp style for force computation currently active
Per MPI rank memory allocation (min/avg/max) = 80.02 | 80.51 | 80.8 Mbytes
     Time         Step          Temp          Press          TotEng    
 24.374588          44000   364.49287     -26450.84      -1554633.7    
 24.529612          44100   363.87742     -26364.923     -1554633.7    
 24.687384          44200   364.81061     -26411.433     -1554633.7    
 24.842103          44300   364.17904     -26356.253     -1554633.7    
 25.000522          44400   364.23689     -26472.789     -1554633.7    
 25.158514          44500   364.77996     -26416.692     -1554633.7    
 25.316209          44600   364.68382     -26428.101     -1554633.7    
 25.473951          44700   365.1999      -26418.001     -1554633.7    
 25.628958          44800   363.93424     -26375.491     -1554633.7    
 25.787124          44900   364.1136      -26374.23      -1554633.7    
 25.94042           45000   364.22939     -26334.117     -1554633.7    
Loop time of 385.682 on 16 procs for 1000 steps with 364500 atoms

Performance: 0.307 ns/day, 78.058 hours/ns, 2.593 timesteps/s, 945.079 katom-step/s
98.0% CPU use with 4 MPI tasks x 4 OpenMP threads

MPI task timing breakdown:
Section |  min time  |  avg time  |  max time  |%varavg| %total
---------------------------------------------------------------
Pair    | 357.15     | 358.28     | 360.02     |   5.7 | 92.89
Neigh   | 4.6866     | 4.7252     | 4.8042     |   2.1 |  1.23
Comm    | 9.6673     | 11.491     | 12.651     |  33.3 |  2.98
Output  | 0.24671    | 0.26755    | 0.28825    |   3.0 |  0.07
Modify  | 9.3567     | 9.3832     | 9.4112     |   0.7 |  2.43
Other   |            | 1.535      |            |       |  0.40

Nlocal:          91125 ave       91614 max       90841 min
Histogram: 1 0 2 0 0 0 0 0 0 1
Nghost:        40021.5 ave       40303 max       39535 min
Histogram: 1 0 0 0 0 0 0 2 0 1
Neighs:    5.84503e+06 ave 5.89884e+06 max 5.80786e+06 min
Histogram: 2 0 0 0 0 1 0 0 0 1

Total # of neighbors = 23380102
Ave neighs/atom = 64.142941
Neighbor list builds = 33
Dangerous builds = 0
if '$(time)>25' then 'write_data NiCoCrFe_pka_5keV_final.lmp' 'quit' 
write_data NiCoCrFe_pka_5keV_final.lmp
System init for write_data ...
No /omp style for force computation currently active
quit
