LAMMPS (2 Aug 2023 - Update 2)
OMP_NUM_THREADS environment is not set. Defaulting to 1 thread. (src/comm.cpp:98)
  using 1 OpenMP thread(s) per MPI task
Loaded 1 plugins from C:\Users\Ratish Panda\AppData\Local\LAMMPS 64-bit 2Aug2023-MSMPI with Python\plugins
# LAMMPS input script for PKA radiation damage in NiCoCrFe at 5 keV
# Establish crystal model, apply 3D PBC, introduce PKA, simulate damage

# Initialize
units metal
boundary p p p
atom_style atomic

# Specify the number of OpenMP threads
package omp 4
set 4 OpenMP thread(s) per MPI task
using multi-threaded neighbor list subroutines

# Read relaxed data file (output from relaxation)
read_data NiCoCrFe_relaxed.lmp
Reading data file ...
  orthogonal box = (0.80381162 0.80381162 0.80381162) to (161.64619 161.64619 161.64619)
  2 by 1 by 2 MPI processor grid
  reading atoms ...
  364500 atoms
  reading velocities ...
  364500 velocities
  read_data CPU = 3.414 seconds

# Define potential (EAM potential for Nickel)
pair_style eam/alloy
pair_coeff * * FeNiCrCoCu-heafixed.setfl Ni Co Cr Fe

neighbor	 1 bin
neigh_modify	 delay 5

# Define thermodynamic dump parameters
reset_timestep 0
thermo 100
thermo_style custom time step temp press etotal

# Apply 3D periodic boundary conditions (already applied by 'read_data')
# No need for create_box or create_atoms

# Dump settings for atomic configurations (optional)
# Use if you want to visualize the simulation progress
dump 1 all custom 1000 NiCoCrFe_pka_5kev_*.dump id type x y z
dump_modify 1 sort id

# PKA radiation damage process
# Define PKA properties
variable pka_energy equal 5.0  # PKA energy in keV
variable pka_direction_x equal 0  # PKA direction x-component
variable pka_direction_y equal 0  # PKA direction y-component
variable pka_direction_z equal 1  # PKA direction z-component

# Calculate center of the simulation cell
variable cell_center_x equal lx/2
variable cell_center_y equal ly/2
variable cell_center_z equal lz/2

# Define radius for selecting recoil atom
variable radius equal 5.0 # This encompasses a bunch of central atoms - at least one should be an Fe atom

# Pick a random atom near the center as the recoil atom
region center_sphere sphere ${cell_center_x} ${cell_center_y} ${cell_center_z} ${radius}
region center_sphere sphere 80.4211883806387 ${cell_center_y} ${cell_center_z} ${radius}
region center_sphere sphere 80.4211883806387 80.4211883806387 ${cell_center_z} ${radius}
region center_sphere sphere 80.4211883806387 80.4211883806387 80.4211883806387 ${radius}
region center_sphere sphere 80.4211883806387 80.4211883806387 80.4211883806387 5

# Create a group of atoms within the defined center region
group center_atoms region center_sphere
44 atoms in group center_atoms

# Create a group of Fe atoms
group fe_atoms type 2 # type 2 is Fe
91125 atoms in group fe_atoms

# PKA velocity is determined by mass of Fe atom, which is selected as PKA atom
# Set PKA velocity to 1314 angstroms per picosecond in specified direction
variable pka_velocity equal 1314.0

region select sphere ${cell_center_x} ${cell_center_y} ${cell_center_z} ${radius}
region select sphere 80.4211883806387 ${cell_center_y} ${cell_center_z} ${radius}
region select sphere 80.4211883806387 80.4211883806387 ${cell_center_z} ${radius}
region select sphere 80.4211883806387 80.4211883806387 80.4211883806387 ${radius}
region select sphere 80.4211883806387 80.4211883806387 80.4211883806387 5
group select empty
0 atoms in group select
variable inside equal count(select,select) #there should not be any empty space between select and select (very hard to debug)
variable n loop 400000 # set to 400000, more than number of atoms in sim cell

label jump
variable select index $(random(1,atoms,364500):%.0f)
variable select index 296858
group select id ${select}
group select id 296858
1 atoms in group select
if "${inside} == 0" then     "group select delete"     "variable select delete"     "next n"     "jump SELF jump"
group select delete
variable select delete
next n
jump SELF jump
variable select index $(random(1,atoms,364500):%.0f)
variable select index 201280
group select id ${select}
group select id 201280
1 atoms in group select
if "${inside} == 0" then     "group select delete"     "variable select delete"     "next n"     "jump SELF jump"
group select delete
variable select delete
next n
jump SELF jump
variable select index $(random(1,atoms,364500):%.0f)
variable select index 132091
group select id ${select}
group select id 132091
1 atoms in group select
if "${inside} == 0" then     "group select delete"     "variable select delete"     "next n"     "jump SELF jump"
group select delete
variable select delete
next n
jump SELF jump
variable select index $(random(1,atoms,364500):%.0f)
variable select index 38085
group select id ${select}
group select id 38085
1 atoms in group select
if "${inside} == 0" then     "group select delete"     "variable select delete"     "next n"     "jump SELF jump"
group select delete
variable select delete
next n
jump SELF jump
variable select index $(random(1,atoms,364500):%.0f)
variable select index 263551
group select id ${select}
group select id 263551
1 atoms in group select
if "${inside} == 0" then     "group select delete"     "variable select delete"     "next n"     "jump SELF jump"
group select delete
variable select delete
next n
jump SELF jump
variable select index $(random(1,atoms,364500):%.0f)
variable select index 253872
group select id ${select}
group select id 253872
1 atoms in group select
if "${inside} == 0" then     "group select delete"     "variable select delete"     "next n"     "jump SELF jump"
group select delete
variable select delete
next n
jump SELF jump
variable select index $(random(1,atoms,364500):%.0f)
variable select index 172830
group select id ${select}
group select id 172830
1 atoms in group select
if "${inside} == 0" then     "group select delete"     "variable select delete"     "next n"     "jump SELF jump"
group select delete
variable select delete
next n
jump SELF jump
variable select index $(random(1,atoms,364500):%.0f)
variable select index 150260
group select id ${select}
group select id 150260
1 atoms in group select
if "${inside} == 0" then     "group select delete"     "variable select delete"     "next n"     "jump SELF jump"
group select delete
variable select delete
next n
jump SELF jump
variable select index $(random(1,atoms,364500):%.0f)
variable select index 301592
group select id ${select}
group select id 301592
1 atoms in group select
if "${inside} == 0" then     "group select delete"     "variable select delete"     "next n"     "jump SELF jump"
group select delete
variable select delete
next n
jump SELF jump
variable select index $(random(1,atoms,364500):%.0f)
variable select index 51471
group select id ${select}
group select id 51471
1 atoms in group select
if "${inside} == 0" then     "group select delete"     "variable select delete"     "next n"     "jump SELF jump"
group select delete
variable select delete
next n
jump SELF jump
variable select index $(random(1,atoms,364500):%.0f)
variable select index 279840
group select id ${select}
group select id 279840
1 atoms in group select
if "${inside} == 0" then     "group select delete"     "variable select delete"     "next n"     "jump SELF jump"
group select delete
variable select delete
next n
jump SELF jump
variable select index $(random(1,atoms,364500):%.0f)
variable select index 209519
group select id ${select}
group select id 209519
1 atoms in group select
if "${inside} == 0" then     "group select delete"     "variable select delete"     "next n"     "jump SELF jump"
group select delete
variable select delete
next n
jump SELF jump
variable select index $(random(1,atoms,364500):%.0f)
variable select index 292929
group select id ${select}
group select id 292929
1 atoms in group select
if "${inside} == 0" then     "group select delete"     "variable select delete"     "next n"     "jump SELF jump"
group select delete
variable select delete
next n
jump SELF jump
variable select index $(random(1,atoms,364500):%.0f)
variable select index 338241
group select id ${select}
group select id 338241
1 atoms in group select
if "${inside} == 0" then     "group select delete"     "variable select delete"     "next n"     "jump SELF jump"
group select delete
variable select delete
next n
jump SELF jump
variable select index $(random(1,atoms,364500):%.0f)
variable select index 277311
group select id ${select}
group select id 277311
1 atoms in group select
if "${inside} == 0" then     "group select delete"     "variable select delete"     "next n"     "jump SELF jump"
group select delete
variable select delete
next n
jump SELF jump
variable select index $(random(1,atoms,364500):%.0f)
variable select index 192326
group select id ${select}
group select id 192326
1 atoms in group select
if "${inside} == 0" then     "group select delete"     "variable select delete"     "next n"     "jump SELF jump"
group select delete
variable select delete
next n
jump SELF jump
variable select index $(random(1,atoms,364500):%.0f)
variable select index 354544
group select id ${select}
group select id 354544
1 atoms in group select
if "${inside} == 0" then     "group select delete"     "variable select delete"     "next n"     "jump SELF jump"
group select delete
variable select delete
next n
jump SELF jump
variable select index $(random(1,atoms,364500):%.0f)
variable select index 196152
group select id ${select}
group select id 196152
1 atoms in group select
if "${inside} == 0" then     "group select delete"     "variable select delete"     "next n"     "jump SELF jump"
group select delete
variable select delete
next n
jump SELF jump
variable select index $(random(1,atoms,364500):%.0f)
variable select index 107038
group select id ${select}
group select id 107038
1 atoms in group select
if "${inside} == 0" then     "group select delete"     "variable select delete"     "next n"     "jump SELF jump"
group select delete
variable select delete
next n
jump SELF jump
variable select index $(random(1,atoms,364500):%.0f)
variable select index 301559
group select id ${select}
group select id 301559
1 atoms in group select
if "${inside} == 0" then     "group select delete"     "variable select delete"     "next n"     "jump SELF jump"
group select delete
variable select delete
next n
jump SELF jump
variable select index $(random(1,atoms,364500):%.0f)
variable select index 239046
group select id ${select}
group select id 239046
1 atoms in group select
if "${inside} == 0" then     "group select delete"     "variable select delete"     "next n"     "jump SELF jump"
group select delete
variable select delete
next n
jump SELF jump
variable select index $(random(1,atoms,364500):%.0f)
variable select index 196791
group select id ${select}
group select id 196791
1 atoms in group select
if "${inside} == 0" then     "group select delete"     "variable select delete"     "next n"     "jump SELF jump"
group select delete
variable select delete
next n
jump SELF jump
variable select index $(random(1,atoms,364500):%.0f)
variable select index 98039
group select id ${select}
group select id 98039
1 atoms in group select
if "${inside} == 0" then     "group select delete"     "variable select delete"     "next n"     "jump SELF jump"
group select delete
variable select delete
next n
jump SELF jump
variable select index $(random(1,atoms,364500):%.0f)
variable select index 46037
group select id ${select}
group select id 46037
1 atoms in group select
if "${inside} == 0" then     "group select delete"     "variable select delete"     "next n"     "jump SELF jump"
group select delete
variable select delete
next n
jump SELF jump
variable select index $(random(1,atoms,364500):%.0f)
variable select index 280931
group select id ${select}
group select id 280931
1 atoms in group select
if "${inside} == 0" then     "group select delete"     "variable select delete"     "next n"     "jump SELF jump"
group select delete
variable select delete
next n
jump SELF jump
variable select index $(random(1,atoms,364500):%.0f)
variable select index 122278
group select id ${select}
group select id 122278
1 atoms in group select
if "${inside} == 0" then     "group select delete"     "variable select delete"     "next n"     "jump SELF jump"
group select delete
variable select delete
next n
jump SELF jump
variable select index $(random(1,atoms,364500):%.0f)
variable select index 251282
group select id ${select}
group select id 251282
1 atoms in group select
if "${inside} == 0" then     "group select delete"     "variable select delete"     "next n"     "jump SELF jump"
group select delete
variable select delete
next n
jump SELF jump
variable select index $(random(1,atoms,364500):%.0f)
variable select index 190405
group select id ${select}
group select id 190405
1 atoms in group select
if "${inside} == 0" then     "group select delete"     "variable select delete"     "next n"     "jump SELF jump"
group select delete
variable select delete
next n
jump SELF jump
variable select index $(random(1,atoms,364500):%.0f)
variable select index 139996
group select id ${select}
group select id 139996
1 atoms in group select
if "${inside} == 0" then     "group select delete"     "variable select delete"     "next n"     "jump SELF jump"
group select delete
variable select delete
next n
jump SELF jump
variable select index $(random(1,atoms,364500):%.0f)
variable select index 137051
group select id ${select}
group select id 137051
1 atoms in group select
if "${inside} == 0" then     "group select delete"     "variable select delete"     "next n"     "jump SELF jump"
group select delete
variable select delete
next n
jump SELF jump
variable select index $(random(1,atoms,364500):%.0f)
variable select index 220528
group select id ${select}
group select id 220528
1 atoms in group select
if "${inside} == 0" then     "group select delete"     "variable select delete"     "next n"     "jump SELF jump"
group select delete
variable select delete
next n
jump SELF jump
variable select index $(random(1,atoms,364500):%.0f)
variable select index 39777
group select id ${select}
group select id 39777
1 atoms in group select
if "${inside} == 0" then     "group select delete"     "variable select delete"     "next n"     "jump SELF jump"
group select delete
variable select delete
next n
jump SELF jump
variable select index $(random(1,atoms,364500):%.0f)
variable select index 200143
group select id ${select}
group select id 200143
1 atoms in group select
if "${inside} == 0" then     "group select delete"     "variable select delete"     "next n"     "jump SELF jump"
group select delete
variable select delete
next n
jump SELF jump
variable select index $(random(1,atoms,364500):%.0f)
variable select index 139841
group select id ${select}
group select id 139841
1 atoms in group select
if "${inside} == 0" then     "group select delete"     "variable select delete"     "next n"     "jump SELF jump"
group select delete
variable select delete
next n
jump SELF jump
variable select index $(random(1,atoms,364500):%.0f)
variable select index 22448
group select id ${select}
group select id 22448
1 atoms in group select
if "${inside} == 0" then     "group select delete"     "variable select delete"     "next n"     "jump SELF jump"
group select delete
variable select delete
next n
jump SELF jump
variable select index $(random(1,atoms,364500):%.0f)
variable select index 204592
group select id ${select}
group select id 204592
1 atoms in group select
if "${inside} == 0" then     "group select delete"     "variable select delete"     "next n"     "jump SELF jump"
group select delete
variable select delete
next n
jump SELF jump
variable select index $(random(1,atoms,364500):%.0f)
variable select index 109485
group select id ${select}
group select id 109485
1 atoms in group select
if "${inside} == 0" then     "group select delete"     "variable select delete"     "next n"     "jump SELF jump"
group select delete
variable select delete
next n
jump SELF jump
variable select index $(random(1,atoms,364500):%.0f)
variable select index 98450
group select id ${select}
group select id 98450
1 atoms in group select
if "${inside} == 0" then     "group select delete"     "variable select delete"     "next n"     "jump SELF jump"
group select delete
variable select delete
next n
jump SELF jump
variable select index $(random(1,atoms,364500):%.0f)
variable select index 114092
group select id ${select}
group select id 114092
1 atoms in group select
if "${inside} == 0" then     "group select delete"     "variable select delete"     "next n"     "jump SELF jump"
group select delete
variable select delete
next n
jump SELF jump
variable select index $(random(1,atoms,364500):%.0f)
variable select index 334052
group select id ${select}
group select id 334052
1 atoms in group select
if "${inside} == 0" then     "group select delete"     "variable select delete"     "next n"     "jump SELF jump"
group select delete
variable select delete
next n
jump SELF jump
variable select index $(random(1,atoms,364500):%.0f)
variable select index 184114
group select id ${select}
group select id 184114
1 atoms in group select
if "${inside} == 0" then     "group select delete"     "variable select delete"     "next n"     "jump SELF jump"
group select delete
variable select delete
next n
jump SELF jump
variable select index $(random(1,atoms,364500):%.0f)
variable select index 14806
group select id ${select}
group select id 14806
1 atoms in group select
if "${inside} == 0" then     "group select delete"     "variable select delete"     "next n"     "jump SELF jump"
group select delete
variable select delete
next n
jump SELF jump
variable select index $(random(1,atoms,364500):%.0f)
variable select index 8726
group select id ${select}
group select id 8726
1 atoms in group select
if "${inside} == 0" then     "group select delete"     "variable select delete"     "next n"     "jump SELF jump"
group select delete
variable select delete
next n
jump SELF jump
variable select index $(random(1,atoms,364500):%.0f)
variable select index 340185
group select id ${select}
group select id 340185
1 atoms in group select
if "${inside} == 0" then     "group select delete"     "variable select delete"     "next n"     "jump SELF jump"
group select delete
variable select delete
next n
jump SELF jump
variable select index $(random(1,atoms,364500):%.0f)
variable select index 76793
group select id ${select}
group select id 76793
1 atoms in group select
if "${inside} == 0" then     "group select delete"     "variable select delete"     "next n"     "jump SELF jump"
group select delete
variable select delete
next n
jump SELF jump
variable select index $(random(1,atoms,364500):%.0f)
variable select index 66608
group select id ${select}
group select id 66608
1 atoms in group select
if "${inside} == 0" then     "group select delete"     "variable select delete"     "next n"     "jump SELF jump"
group select delete
variable select delete
next n
jump SELF jump
variable select index $(random(1,atoms,364500):%.0f)
variable select index 20972
group select id ${select}
group select id 20972
1 atoms in group select
if "${inside} == 0" then     "group select delete"     "variable select delete"     "next n"     "jump SELF jump"
group select delete
variable select delete
next n
jump SELF jump
variable select index $(random(1,atoms,364500):%.0f)
variable select index 244687
group select id ${select}
group select id 244687
1 atoms in group select
if "${inside} == 0" then     "group select delete"     "variable select delete"     "next n"     "jump SELF jump"
group select delete
variable select delete
next n
jump SELF jump
variable select index $(random(1,atoms,364500):%.0f)
variable select index 356198
group select id ${select}
group select id 356198
1 atoms in group select
if "${inside} == 0" then     "group select delete"     "variable select delete"     "next n"     "jump SELF jump"
group select delete
variable select delete
next n
jump SELF jump
variable select index $(random(1,atoms,364500):%.0f)
variable select index 167189
group select id ${select}
group select id 167189
1 atoms in group select
if "${inside} == 0" then     "group select delete"     "variable select delete"     "next n"     "jump SELF jump"
group select delete
variable select delete
next n
jump SELF jump
variable select index $(random(1,atoms,364500):%.0f)
variable select index 349952
group select id ${select}
group select id 349952
1 atoms in group select
if "${inside} == 0" then     "group select delete"     "variable select delete"     "next n"     "jump SELF jump"
group select delete
variable select delete
next n
jump SELF jump
variable select index $(random(1,atoms,364500):%.0f)
variable select index 318419
group select id ${select}
group select id 318419
1 atoms in group select
if "${inside} == 0" then     "group select delete"     "variable select delete"     "next n"     "jump SELF jump"
group select delete
variable select delete
next n
jump SELF jump
variable select index $(random(1,atoms,364500):%.0f)
variable select index 224029
group select id ${select}
group select id 224029
1 atoms in group select
if "${inside} == 0" then     "group select delete"     "variable select delete"     "next n"     "jump SELF jump"
group select delete
variable select delete
next n
jump SELF jump
variable select index $(random(1,atoms,364500):%.0f)
variable select index 214595
group select id ${select}
group select id 214595
1 atoms in group select
if "${inside} == 0" then     "group select delete"     "variable select delete"     "next n"     "jump SELF jump"
group select delete
variable select delete
next n
jump SELF jump
variable select index $(random(1,atoms,364500):%.0f)
variable select index 17925
group select id ${select}
group select id 17925
1 atoms in group select
if "${inside} == 0" then     "group select delete"     "variable select delete"     "next n"     "jump SELF jump"
group select delete
variable select delete
next n
jump SELF jump
variable select index $(random(1,atoms,364500):%.0f)
variable select index 106171
group select id ${select}
group select id 106171
1 atoms in group select
if "${inside} == 0" then     "group select delete"     "variable select delete"     "next n"     "jump SELF jump"
group select delete
variable select delete
next n
jump SELF jump
variable select index $(random(1,atoms,364500):%.0f)
variable select index 24786
group select id ${select}
group select id 24786
1 atoms in group select
if "${inside} == 0" then     "group select delete"     "variable select delete"     "next n"     "jump SELF jump"
group select delete
variable select delete
next n
jump SELF jump
variable select index $(random(1,atoms,364500):%.0f)
variable select index 126804
group select id ${select}
group select id 126804
1 atoms in group select
if "${inside} == 0" then     "group select delete"     "variable select delete"     "next n"     "jump SELF jump"
group select delete
variable select delete
next n
jump SELF jump
variable select index $(random(1,atoms,364500):%.0f)
variable select index 346543
group select id ${select}
group select id 346543
1 atoms in group select
if "${inside} == 0" then     "group select delete"     "variable select delete"     "next n"     "jump SELF jump"
group select delete
variable select delete
next n
jump SELF jump
variable select index $(random(1,atoms,364500):%.0f)
variable select index 352807
group select id ${select}
group select id 352807
1 atoms in group select
if "${inside} == 0" then     "group select delete"     "variable select delete"     "next n"     "jump SELF jump"
group select delete
variable select delete
next n
jump SELF jump
variable select index $(random(1,atoms,364500):%.0f)
variable select index 60672
group select id ${select}
group select id 60672
1 atoms in group select
if "${inside} == 0" then     "group select delete"     "variable select delete"     "next n"     "jump SELF jump"
group select delete
variable select delete
next n
jump SELF jump
variable select index $(random(1,atoms,364500):%.0f)
variable select index 346740
group select id ${select}
group select id 346740
1 atoms in group select
if "${inside} == 0" then     "group select delete"     "variable select delete"     "next n"     "jump SELF jump"
group select delete
variable select delete
next n
jump SELF jump
variable select index $(random(1,atoms,364500):%.0f)
variable select index 303166
group select id ${select}
group select id 303166
1 atoms in group select
if "${inside} == 0" then     "group select delete"     "variable select delete"     "next n"     "jump SELF jump"
group select delete
variable select delete
next n
jump SELF jump
variable select index $(random(1,atoms,364500):%.0f)
variable select index 9020
group select id ${select}
group select id 9020
1 atoms in group select
if "${inside} == 0" then     "group select delete"     "variable select delete"     "next n"     "jump SELF jump"
group select delete
variable select delete
next n
jump SELF jump
variable select index $(random(1,atoms,364500):%.0f)
variable select index 270250
group select id ${select}
group select id 270250
1 atoms in group select
if "${inside} == 0" then     "group select delete"     "variable select delete"     "next n"     "jump SELF jump"
group select delete
variable select delete
next n
jump SELF jump
variable select index $(random(1,atoms,364500):%.0f)
variable select index 211694
group select id ${select}
group select id 211694
1 atoms in group select
if "${inside} == 0" then     "group select delete"     "variable select delete"     "next n"     "jump SELF jump"
group select delete
variable select delete
next n
jump SELF jump
variable select index $(random(1,atoms,364500):%.0f)
variable select index 121124
group select id ${select}
group select id 121124
1 atoms in group select
if "${inside} == 0" then     "group select delete"     "variable select delete"     "next n"     "jump SELF jump"
group select delete
variable select delete
next n
jump SELF jump
variable select index $(random(1,atoms,364500):%.0f)
variable select index 10323
group select id ${select}
group select id 10323
1 atoms in group select
if "${inside} == 0" then     "group select delete"     "variable select delete"     "next n"     "jump SELF jump"
group select delete
variable select delete
next n
jump SELF jump
variable select index $(random(1,atoms,364500):%.0f)
variable select index 163586
group select id ${select}
group select id 163586
1 atoms in group select
if "${inside} == 0" then     "group select delete"     "variable select delete"     "next n"     "jump SELF jump"
group select delete
variable select delete
next n
jump SELF jump
variable select index $(random(1,atoms,364500):%.0f)
variable select index 1792
group select id ${select}
group select id 1792
1 atoms in group select
if "${inside} == 0" then     "group select delete"     "variable select delete"     "next n"     "jump SELF jump"
group select delete
variable select delete
next n
jump SELF jump
variable select index $(random(1,atoms,364500):%.0f)
variable select index 221899
group select id ${select}
group select id 221899
1 atoms in group select
if "${inside} == 0" then     "group select delete"     "variable select delete"     "next n"     "jump SELF jump"
group select delete
variable select delete
next n
jump SELF jump
variable select index $(random(1,atoms,364500):%.0f)
variable select index 332804
group select id ${select}
group select id 332804
1 atoms in group select
if "${inside} == 0" then     "group select delete"     "variable select delete"     "next n"     "jump SELF jump"
group select delete
variable select delete
next n
jump SELF jump
variable select index $(random(1,atoms,364500):%.0f)
variable select index 241990
group select id ${select}
group select id 241990
1 atoms in group select
if "${inside} == 0" then     "group select delete"     "variable select delete"     "next n"     "jump SELF jump"
group select delete
variable select delete
next n
jump SELF jump
variable select index $(random(1,atoms,364500):%.0f)
variable select index 91264
group select id ${select}
group select id 91264
1 atoms in group select
if "${inside} == 0" then     "group select delete"     "variable select delete"     "next n"     "jump SELF jump"
group select delete
variable select delete
next n
jump SELF jump
variable select index $(random(1,atoms,364500):%.0f)
variable select index 252682
group select id ${select}
group select id 252682
1 atoms in group select
if "${inside} == 0" then     "group select delete"     "variable select delete"     "next n"     "jump SELF jump"
group select delete
variable select delete
next n
jump SELF jump
variable select index $(random(1,atoms,364500):%.0f)
variable select index 309076
group select id ${select}
group select id 309076
1 atoms in group select
if "${inside} == 0" then     "group select delete"     "variable select delete"     "next n"     "jump SELF jump"
group select delete
variable select delete
next n
jump SELF jump
variable select index $(random(1,atoms,364500):%.0f)
variable select index 17288
group select id ${select}
group select id 17288
1 atoms in group select
if "${inside} == 0" then     "group select delete"     "variable select delete"     "next n"     "jump SELF jump"
group select delete
variable select delete
next n
jump SELF jump
variable select index $(random(1,atoms,364500):%.0f)
variable select index 348896
group select id ${select}
group select id 348896
1 atoms in group select
if "${inside} == 0" then     "group select delete"     "variable select delete"     "next n"     "jump SELF jump"
group select delete
variable select delete
next n
jump SELF jump
variable select index $(random(1,atoms,364500):%.0f)
variable select index 24504
group select id ${select}
group select id 24504
1 atoms in group select
if "${inside} == 0" then     "group select delete"     "variable select delete"     "next n"     "jump SELF jump"
group select delete
variable select delete
next n
jump SELF jump
variable select index $(random(1,atoms,364500):%.0f)
variable select index 10118
group select id ${select}
group select id 10118
1 atoms in group select
if "${inside} == 0" then     "group select delete"     "variable select delete"     "next n"     "jump SELF jump"
group select delete
variable select delete
next n
jump SELF jump
variable select index $(random(1,atoms,364500):%.0f)
variable select index 358564
group select id ${select}
group select id 358564
1 atoms in group select
if "${inside} == 0" then     "group select delete"     "variable select delete"     "next n"     "jump SELF jump"
group select delete
variable select delete
next n
jump SELF jump
variable select index $(random(1,atoms,364500):%.0f)
variable select index 296167
group select id ${select}
group select id 296167
1 atoms in group select
if "${inside} == 0" then     "group select delete"     "variable select delete"     "next n"     "jump SELF jump"
group select delete
variable select delete
next n
jump SELF jump
variable select index $(random(1,atoms,364500):%.0f)
variable select index 61766
group select id ${select}
group select id 61766
1 atoms in group select
if "${inside} == 0" then     "group select delete"     "variable select delete"     "next n"     "jump SELF jump"
group select delete
variable select delete
next n
jump SELF jump
variable select index $(random(1,atoms,364500):%.0f)
variable select index 287586
group select id ${select}
group select id 287586
1 atoms in group select
if "${inside} == 0" then     "group select delete"     "variable select delete"     "next n"     "jump SELF jump"
group select delete
variable select delete
next n
jump SELF jump
variable select index $(random(1,atoms,364500):%.0f)
variable select index 85730
group select id ${select}
group select id 85730
1 atoms in group select
if "${inside} == 0" then     "group select delete"     "variable select delete"     "next n"     "jump SELF jump"
group select delete
variable select delete
next n
jump SELF jump
variable select index $(random(1,atoms,364500):%.0f)
variable select index 53870
group select id ${select}
group select id 53870
1 atoms in group select
if "${inside} == 0" then     "group select delete"     "variable select delete"     "next n"     "jump SELF jump"
group select delete
variable select delete
next n
jump SELF jump
variable select index $(random(1,atoms,364500):%.0f)
variable select index 51836
group select id ${select}
group select id 51836
1 atoms in group select
if "${inside} == 0" then     "group select delete"     "variable select delete"     "next n"     "jump SELF jump"
group select delete
variable select delete
next n
jump SELF jump
variable select index $(random(1,atoms,364500):%.0f)
variable select index 159359
group select id ${select}
group select id 159359
1 atoms in group select
if "${inside} == 0" then     "group select delete"     "variable select delete"     "next n"     "jump SELF jump"
group select delete
variable select delete
next n
jump SELF jump
variable select index $(random(1,atoms,364500):%.0f)
variable select index 185816
group select id ${select}
group select id 185816
1 atoms in group select
if "${inside} == 0" then     "group select delete"     "variable select delete"     "next n"     "jump SELF jump"
group select delete
variable select delete
next n
jump SELF jump
variable select index $(random(1,atoms,364500):%.0f)
variable select index 357145
group select id ${select}
group select id 357145
1 atoms in group select
if "${inside} == 0" then     "group select delete"     "variable select delete"     "next n"     "jump SELF jump"
group select delete
variable select delete
next n
jump SELF jump
variable select index $(random(1,atoms,364500):%.0f)
variable select index 326587
group select id ${select}
group select id 326587
1 atoms in group select
if "${inside} == 0" then     "group select delete"     "variable select delete"     "next n"     "jump SELF jump"
group select delete
variable select delete
next n
jump SELF jump
variable select index $(random(1,atoms,364500):%.0f)
variable select index 241611
group select id ${select}
group select id 241611
1 atoms in group select
if "${inside} == 0" then     "group select delete"     "variable select delete"     "next n"     "jump SELF jump"
group select delete
variable select delete
next n
jump SELF jump
variable select index $(random(1,atoms,364500):%.0f)
variable select index 34358
group select id ${select}
group select id 34358
1 atoms in group select
if "${inside} == 0" then     "group select delete"     "variable select delete"     "next n"     "jump SELF jump"
group select delete
variable select delete
next n
jump SELF jump
variable select index $(random(1,atoms,364500):%.0f)
variable select index 191638
group select id ${select}
group select id 191638
1 atoms in group select
if "${inside} == 0" then     "group select delete"     "variable select delete"     "next n"     "jump SELF jump"
group select delete
variable select delete
next n
jump SELF jump
variable select index $(random(1,atoms,364500):%.0f)
variable select index 147393
group select id ${select}
group select id 147393
1 atoms in group select
if "${inside} == 0" then     "group select delete"     "variable select delete"     "next n"     "jump SELF jump"
group select delete
variable select delete
next n
jump SELF jump
variable select index $(random(1,atoms,364500):%.0f)
variable select index 341822
group select id ${select}
group select id 341822
1 atoms in group select
if "${inside} == 0" then     "group select delete"     "variable select delete"     "next n"     "jump SELF jump"
group select delete
variable select delete
next n
jump SELF jump
variable select index $(random(1,atoms,364500):%.0f)
variable select index 51059
group select id ${select}
group select id 51059
1 atoms in group select
if "${inside} == 0" then     "group select delete"     "variable select delete"     "next n"     "jump SELF jump"
group select delete
variable select delete
next n
jump SELF jump
variable select index $(random(1,atoms,364500):%.0f)
variable select index 152143
group select id ${select}
group select id 152143
1 atoms in group select
if "${inside} == 0" then     "group select delete"     "variable select delete"     "next n"     "jump SELF jump"
group select delete
variable select delete
next n
jump SELF jump
variable select index $(random(1,atoms,364500):%.0f)
variable select index 281418
group select id ${select}
group select id 281418
1 atoms in group select
if "${inside} == 0" then     "group select delete"     "variable select delete"     "next n"     "jump SELF jump"
group select delete
variable select delete
next n
jump SELF jump
variable select index $(random(1,atoms,364500):%.0f)
variable select index 104597
group select id ${select}
group select id 104597
1 atoms in group select
if "${inside} == 0" then     "group select delete"     "variable select delete"     "next n"     "jump SELF jump"
group select delete
variable select delete
next n
jump SELF jump
variable select index $(random(1,atoms,364500):%.0f)
variable select index 287688
group select id ${select}
group select id 287688
1 atoms in group select
if "${inside} == 0" then     "group select delete"     "variable select delete"     "next n"     "jump SELF jump"
group select delete
variable select delete
next n
jump SELF jump
variable select index $(random(1,atoms,364500):%.0f)
variable select index 161689
group select id ${select}
group select id 161689
1 atoms in group select
if "${inside} == 0" then     "group select delete"     "variable select delete"     "next n"     "jump SELF jump"
group select delete
variable select delete
next n
jump SELF jump
variable select index $(random(1,atoms,364500):%.0f)
variable select index 115602
group select id ${select}
group select id 115602
1 atoms in group select
if "${inside} == 0" then     "group select delete"     "variable select delete"     "next n"     "jump SELF jump"
group select delete
variable select delete
next n
jump SELF jump
variable select index $(random(1,atoms,364500):%.0f)
variable select index 345247
group select id ${select}
group select id 345247
1 atoms in group select
if "${inside} == 0" then     "group select delete"     "variable select delete"     "next n"     "jump SELF jump"
group select delete
variable select delete
next n
jump SELF jump
variable select index $(random(1,atoms,364500):%.0f)
variable select index 13570
group select id ${select}
group select id 13570
1 atoms in group select
if "${inside} == 0" then     "group select delete"     "variable select delete"     "next n"     "jump SELF jump"
group select delete
variable select delete
next n
jump SELF jump
variable select index $(random(1,atoms,364500):%.0f)
variable select index 57514
group select id ${select}
group select id 57514
1 atoms in group select
if "${inside} == 0" then     "group select delete"     "variable select delete"     "next n"     "jump SELF jump"
group select delete
variable select delete
next n
jump SELF jump
variable select index $(random(1,atoms,364500):%.0f)
variable select index 124415
group select id ${select}
group select id 124415
1 atoms in group select
if "${inside} == 0" then     "group select delete"     "variable select delete"     "next n"     "jump SELF jump"
group select delete
variable select delete
next n
jump SELF jump
variable select index $(random(1,atoms,364500):%.0f)
variable select index 357663
group select id ${select}
group select id 357663
1 atoms in group select
if "${inside} == 0" then     "group select delete"     "variable select delete"     "next n"     "jump SELF jump"
group select delete
variable select delete
next n
jump SELF jump
variable select index $(random(1,atoms,364500):%.0f)
variable select index 32746
group select id ${select}
group select id 32746
1 atoms in group select
if "${inside} == 0" then     "group select delete"     "variable select delete"     "next n"     "jump SELF jump"
group select delete
variable select delete
next n
jump SELF jump
variable select index $(random(1,atoms,364500):%.0f)
variable select index 209741
group select id ${select}
group select id 209741
1 atoms in group select
if "${inside} == 0" then     "group select delete"     "variable select delete"     "next n"     "jump SELF jump"
group select delete
variable select delete
next n
jump SELF jump
variable select index $(random(1,atoms,364500):%.0f)
variable select index 89742
group select id ${select}
group select id 89742
1 atoms in group select
if "${inside} == 0" then     "group select delete"     "variable select delete"     "next n"     "jump SELF jump"
group select delete
variable select delete
next n
jump SELF jump
variable select index $(random(1,atoms,364500):%.0f)
variable select index 155001
group select id ${select}
group select id 155001
1 atoms in group select
if "${inside} == 0" then     "group select delete"     "variable select delete"     "next n"     "jump SELF jump"
group select delete
variable select delete
next n
jump SELF jump
variable select index $(random(1,atoms,364500):%.0f)
variable select index 250699
group select id ${select}
group select id 250699
1 atoms in group select
if "${inside} == 0" then     "group select delete"     "variable select delete"     "next n"     "jump SELF jump"
group select delete
variable select delete
next n
jump SELF jump
variable select index $(random(1,atoms,364500):%.0f)
variable select index 230767
group select id ${select}
group select id 230767
1 atoms in group select
if "${inside} == 0" then     "group select delete"     "variable select delete"     "next n"     "jump SELF jump"
group select delete
variable select delete
next n
jump SELF jump
variable select index $(random(1,atoms,364500):%.0f)
variable select index 301069
group select id ${select}
group select id 301069
1 atoms in group select
if "${inside} == 0" then     "group select delete"     "variable select delete"     "next n"     "jump SELF jump"
group select delete
variable select delete
next n
jump SELF jump
variable select index $(random(1,atoms,364500):%.0f)
variable select index 248153
group select id ${select}
group select id 248153
1 atoms in group select
if "${inside} == 0" then     "group select delete"     "variable select delete"     "next n"     "jump SELF jump"
group select delete
variable select delete
next n
jump SELF jump
variable select index $(random(1,atoms,364500):%.0f)
variable select index 18651
group select id ${select}
group select id 18651
1 atoms in group select
if "${inside} == 0" then     "group select delete"     "variable select delete"     "next n"     "jump SELF jump"
group select delete
variable select delete
next n
jump SELF jump
variable select index $(random(1,atoms,364500):%.0f)
variable select index 324291
group select id ${select}
group select id 324291
1 atoms in group select
if "${inside} == 0" then     "group select delete"     "variable select delete"     "next n"     "jump SELF jump"
group select delete
variable select delete
next n
jump SELF jump
variable select index $(random(1,atoms,364500):%.0f)
variable select index 115694
group select id ${select}
group select id 115694
1 atoms in group select
if "${inside} == 0" then     "group select delete"     "variable select delete"     "next n"     "jump SELF jump"
group select delete
variable select delete
next n
jump SELF jump
variable select index $(random(1,atoms,364500):%.0f)
variable select index 185272
group select id ${select}
group select id 185272
1 atoms in group select
if "${inside} == 0" then     "group select delete"     "variable select delete"     "next n"     "jump SELF jump"
group select delete
variable select delete
next n
jump SELF jump
variable select index $(random(1,atoms,364500):%.0f)
variable select index 192043
group select id ${select}
group select id 192043
1 atoms in group select
if "${inside} == 0" then     "group select delete"     "variable select delete"     "next n"     "jump SELF jump"
group select delete
variable select delete
next n
jump SELF jump
variable select index $(random(1,atoms,364500):%.0f)
variable select index 202279
group select id ${select}
group select id 202279
1 atoms in group select
if "${inside} == 0" then     "group select delete"     "variable select delete"     "next n"     "jump SELF jump"
group select delete
variable select delete
next n
jump SELF jump
variable select index $(random(1,atoms,364500):%.0f)
variable select index 38593
group select id ${select}
group select id 38593
1 atoms in group select
if "${inside} == 0" then     "group select delete"     "variable select delete"     "next n"     "jump SELF jump"
group select delete
variable select delete
next n
jump SELF jump
variable select index $(random(1,atoms,364500):%.0f)
variable select index 364452
group select id ${select}
group select id 364452
1 atoms in group select
if "${inside} == 0" then     "group select delete"     "variable select delete"     "next n"     "jump SELF jump"
group select delete
variable select delete
next n
jump SELF jump
variable select index $(random(1,atoms,364500):%.0f)
variable select index 190348
group select id ${select}
group select id 190348
1 atoms in group select
if "${inside} == 0" then     "group select delete"     "variable select delete"     "next n"     "jump SELF jump"
group select delete
variable select delete
next n
jump SELF jump
variable select index $(random(1,atoms,364500):%.0f)
variable select index 148990
group select id ${select}
group select id 148990
1 atoms in group select
if "${inside} == 0" then     "group select delete"     "variable select delete"     "next n"     "jump SELF jump"
group select delete
variable select delete
next n
jump SELF jump
variable select index $(random(1,atoms,364500):%.0f)
variable select index 155061
group select id ${select}
group select id 155061
1 atoms in group select
if "${inside} == 0" then     "group select delete"     "variable select delete"     "next n"     "jump SELF jump"
group select delete
variable select delete
next n
jump SELF jump
variable select index $(random(1,atoms,364500):%.0f)
variable select index 84580
group select id ${select}
group select id 84580
1 atoms in group select
if "${inside} == 0" then     "group select delete"     "variable select delete"     "next n"     "jump SELF jump"
group select delete
variable select delete
next n
jump SELF jump
variable select index $(random(1,atoms,364500):%.0f)
variable select index 240196
group select id ${select}
group select id 240196
1 atoms in group select
if "${inside} == 0" then     "group select delete"     "variable select delete"     "next n"     "jump SELF jump"
group select delete
variable select delete
next n
jump SELF jump
variable select index $(random(1,atoms,364500):%.0f)
variable select index 128624
group select id ${select}
group select id 128624
1 atoms in group select
if "${inside} == 0" then     "group select delete"     "variable select delete"     "next n"     "jump SELF jump"
group select delete
variable select delete
next n
jump SELF jump
variable select index $(random(1,atoms,364500):%.0f)
variable select index 133535
group select id ${select}
group select id 133535
1 atoms in group select
if "${inside} == 0" then     "group select delete"     "variable select delete"     "next n"     "jump SELF jump"
group select delete
variable select delete
next n
jump SELF jump
variable select index $(random(1,atoms,364500):%.0f)
variable select index 53163
group select id ${select}
group select id 53163
1 atoms in group select
if "${inside} == 0" then     "group select delete"     "variable select delete"     "next n"     "jump SELF jump"
group select delete
variable select delete
next n
jump SELF jump
variable select index $(random(1,atoms,364500):%.0f)
variable select index 213926
group select id ${select}
group select id 213926
1 atoms in group select
if "${inside} == 0" then     "group select delete"     "variable select delete"     "next n"     "jump SELF jump"
group select delete
variable select delete
next n
jump SELF jump
variable select index $(random(1,atoms,364500):%.0f)
variable select index 102024
group select id ${select}
group select id 102024
1 atoms in group select
if "${inside} == 0" then     "group select delete"     "variable select delete"     "next n"     "jump SELF jump"
group select delete
variable select delete
next n
jump SELF jump
variable select index $(random(1,atoms,364500):%.0f)
variable select index 18786
group select id ${select}
group select id 18786
1 atoms in group select
if "${inside} == 0" then     "group select delete"     "variable select delete"     "next n"     "jump SELF jump"
group select delete
variable select delete
next n
jump SELF jump
variable select index $(random(1,atoms,364500):%.0f)
variable select index 246811
group select id ${select}
group select id 246811
1 atoms in group select
if "${inside} == 0" then     "group select delete"     "variable select delete"     "next n"     "jump SELF jump"
group select delete
variable select delete
next n
jump SELF jump
variable select index $(random(1,atoms,364500):%.0f)
variable select index 38923
group select id ${select}
group select id 38923
1 atoms in group select
if "${inside} == 0" then     "group select delete"     "variable select delete"     "next n"     "jump SELF jump"
group select delete
variable select delete
next n
jump SELF jump
variable select index $(random(1,atoms,364500):%.0f)
variable select index 22460
group select id ${select}
group select id 22460
1 atoms in group select
if "${inside} == 0" then     "group select delete"     "variable select delete"     "next n"     "jump SELF jump"
group select delete
variable select delete
next n
jump SELF jump
variable select index $(random(1,atoms,364500):%.0f)
variable select index 340003
group select id ${select}
group select id 340003
1 atoms in group select
if "${inside} == 0" then     "group select delete"     "variable select delete"     "next n"     "jump SELF jump"
group select delete
variable select delete
next n
jump SELF jump
variable select index $(random(1,atoms,364500):%.0f)
variable select index 68820
group select id ${select}
group select id 68820
1 atoms in group select
if "${inside} == 0" then     "group select delete"     "variable select delete"     "next n"     "jump SELF jump"
group select delete
variable select delete
next n
jump SELF jump
variable select index $(random(1,atoms,364500):%.0f)
variable select index 333327
group select id ${select}
group select id 333327
1 atoms in group select
if "${inside} == 0" then     "group select delete"     "variable select delete"     "next n"     "jump SELF jump"
group select delete
variable select delete
next n
jump SELF jump
variable select index $(random(1,atoms,364500):%.0f)
variable select index 196651
group select id ${select}
group select id 196651
1 atoms in group select
if "${inside} == 0" then     "group select delete"     "variable select delete"     "next n"     "jump SELF jump"
group select delete
variable select delete
next n
jump SELF jump
variable select index $(random(1,atoms,364500):%.0f)
variable select index 175767
group select id ${select}
group select id 175767
1 atoms in group select
if "${inside} == 0" then     "group select delete"     "variable select delete"     "next n"     "jump SELF jump"
group select delete
variable select delete
next n
jump SELF jump
variable select index $(random(1,atoms,364500):%.0f)
variable select index 51927
group select id ${select}
group select id 51927
1 atoms in group select
if "${inside} == 0" then     "group select delete"     "variable select delete"     "next n"     "jump SELF jump"
group select delete
variable select delete
next n
jump SELF jump
variable select index $(random(1,atoms,364500):%.0f)
variable select index 12180
group select id ${select}
group select id 12180
1 atoms in group select
if "${inside} == 0" then     "group select delete"     "variable select delete"     "next n"     "jump SELF jump"
group select delete
variable select delete
next n
jump SELF jump
variable select index $(random(1,atoms,364500):%.0f)
variable select index 194290
group select id ${select}
group select id 194290
1 atoms in group select
if "${inside} == 0" then     "group select delete"     "variable select delete"     "next n"     "jump SELF jump"
group select delete
variable select delete
next n
jump SELF jump
variable select index $(random(1,atoms,364500):%.0f)
variable select index 191509
group select id ${select}
group select id 191509
1 atoms in group select
if "${inside} == 0" then     "group select delete"     "variable select delete"     "next n"     "jump SELF jump"
group select delete
variable select delete
next n
jump SELF jump
variable select index $(random(1,atoms,364500):%.0f)
variable select index 105769
group select id ${select}
group select id 105769
1 atoms in group select
if "${inside} == 0" then     "group select delete"     "variable select delete"     "next n"     "jump SELF jump"
group select delete
variable select delete
next n
jump SELF jump
variable select index $(random(1,atoms,364500):%.0f)
variable select index 293447
group select id ${select}
group select id 293447
1 atoms in group select
if "${inside} == 0" then     "group select delete"     "variable select delete"     "next n"     "jump SELF jump"
group select delete
variable select delete
next n
jump SELF jump
variable select index $(random(1,atoms,364500):%.0f)
variable select index 230358
group select id ${select}
group select id 230358
1 atoms in group select
if "${inside} == 0" then     "group select delete"     "variable select delete"     "next n"     "jump SELF jump"
group select delete
variable select delete
next n
jump SELF jump
variable select index $(random(1,atoms,364500):%.0f)
variable select index 81580
group select id ${select}
group select id 81580
1 atoms in group select
if "${inside} == 0" then     "group select delete"     "variable select delete"     "next n"     "jump SELF jump"
group select delete
variable select delete
next n
jump SELF jump
variable select index $(random(1,atoms,364500):%.0f)
variable select index 259804
group select id ${select}
group select id 259804
1 atoms in group select
if "${inside} == 0" then     "group select delete"     "variable select delete"     "next n"     "jump SELF jump"
group select delete
variable select delete
next n
jump SELF jump
variable select index $(random(1,atoms,364500):%.0f)
variable select index 80268
group select id ${select}
group select id 80268
1 atoms in group select
if "${inside} == 0" then     "group select delete"     "variable select delete"     "next n"     "jump SELF jump"
group select delete
variable select delete
next n
jump SELF jump
variable select index $(random(1,atoms,364500):%.0f)
variable select index 158409
group select id ${select}
group select id 158409
1 atoms in group select
if "${inside} == 0" then     "group select delete"     "variable select delete"     "next n"     "jump SELF jump"
group select delete
variable select delete
next n
jump SELF jump
variable select index $(random(1,atoms,364500):%.0f)
variable select index 51989
group select id ${select}
group select id 51989
1 atoms in group select
if "${inside} == 0" then     "group select delete"     "variable select delete"     "next n"     "jump SELF jump"
group select delete
variable select delete
next n
jump SELF jump
variable select index $(random(1,atoms,364500):%.0f)
variable select index 237211
group select id ${select}
group select id 237211
1 atoms in group select
if "${inside} == 0" then     "group select delete"     "variable select delete"     "next n"     "jump SELF jump"
group select delete
variable select delete
next n
jump SELF jump
variable select index $(random(1,atoms,364500):%.0f)
variable select index 83914
group select id ${select}
group select id 83914
1 atoms in group select
if "${inside} == 0" then     "group select delete"     "variable select delete"     "next n"     "jump SELF jump"
group select delete
variable select delete
next n
jump SELF jump
variable select index $(random(1,atoms,364500):%.0f)
variable select index 132179
group select id ${select}
group select id 132179
1 atoms in group select
if "${inside} == 0" then     "group select delete"     "variable select delete"     "next n"     "jump SELF jump"
group select delete
variable select delete
next n
jump SELF jump
variable select index $(random(1,atoms,364500):%.0f)
variable select index 261402
group select id ${select}
group select id 261402
1 atoms in group select
if "${inside} == 0" then     "group select delete"     "variable select delete"     "next n"     "jump SELF jump"
group select delete
variable select delete
next n
jump SELF jump
variable select index $(random(1,atoms,364500):%.0f)
variable select index 13554
group select id ${select}
group select id 13554
1 atoms in group select
if "${inside} == 0" then     "group select delete"     "variable select delete"     "next n"     "jump SELF jump"
group select delete
variable select delete
next n
jump SELF jump
variable select index $(random(1,atoms,364500):%.0f)
variable select index 320685
group select id ${select}
group select id 320685
1 atoms in group select
if "${inside} == 0" then     "group select delete"     "variable select delete"     "next n"     "jump SELF jump"
group select delete
variable select delete
next n
jump SELF jump
variable select index $(random(1,atoms,364500):%.0f)
variable select index 228097
group select id ${select}
group select id 228097
1 atoms in group select
if "${inside} == 0" then     "group select delete"     "variable select delete"     "next n"     "jump SELF jump"
group select delete
variable select delete
next n
jump SELF jump
variable select index $(random(1,atoms,364500):%.0f)
variable select index 82910
group select id ${select}
group select id 82910
1 atoms in group select
if "${inside} == 0" then     "group select delete"     "variable select delete"     "next n"     "jump SELF jump"
group select delete
variable select delete
next n
jump SELF jump
variable select index $(random(1,atoms,364500):%.0f)
variable select index 153726
group select id ${select}
group select id 153726
1 atoms in group select
if "${inside} == 0" then     "group select delete"     "variable select delete"     "next n"     "jump SELF jump"
group select delete
variable select delete
next n
jump SELF jump
variable select index $(random(1,atoms,364500):%.0f)
variable select index 289593
group select id ${select}
group select id 289593
1 atoms in group select
if "${inside} == 0" then     "group select delete"     "variable select delete"     "next n"     "jump SELF jump"
group select delete
variable select delete
next n
jump SELF jump
variable select index $(random(1,atoms,364500):%.0f)
variable select index 83891
group select id ${select}
group select id 83891
1 atoms in group select
if "${inside} == 0" then     "group select delete"     "variable select delete"     "next n"     "jump SELF jump"
group select delete
variable select delete
next n
jump SELF jump
variable select index $(random(1,atoms,364500):%.0f)
variable select index 200295
group select id ${select}
group select id 200295
1 atoms in group select
if "${inside} == 0" then     "group select delete"     "variable select delete"     "next n"     "jump SELF jump"
group select delete
variable select delete
next n
jump SELF jump
variable select index $(random(1,atoms,364500):%.0f)
variable select index 305438
group select id ${select}
group select id 305438
1 atoms in group select
if "${inside} == 0" then     "group select delete"     "variable select delete"     "next n"     "jump SELF jump"
group select delete
variable select delete
next n
jump SELF jump
variable select index $(random(1,atoms,364500):%.0f)
variable select index 354614
group select id ${select}
group select id 354614
1 atoms in group select
if "${inside} == 0" then     "group select delete"     "variable select delete"     "next n"     "jump SELF jump"
group select delete
variable select delete
next n
jump SELF jump
variable select index $(random(1,atoms,364500):%.0f)
variable select index 273486
group select id ${select}
group select id 273486
1 atoms in group select
if "${inside} == 0" then     "group select delete"     "variable select delete"     "next n"     "jump SELF jump"
group select delete
variable select delete
next n
jump SELF jump
variable select index $(random(1,atoms,364500):%.0f)
variable select index 305520
group select id ${select}
group select id 305520
1 atoms in group select
if "${inside} == 0" then     "group select delete"     "variable select delete"     "next n"     "jump SELF jump"
group select delete
variable select delete
next n
jump SELF jump
variable select index $(random(1,atoms,364500):%.0f)
variable select index 315690
group select id ${select}
group select id 315690
1 atoms in group select
if "${inside} == 0" then     "group select delete"     "variable select delete"     "next n"     "jump SELF jump"
group select delete
variable select delete
next n
jump SELF jump
variable select index $(random(1,atoms,364500):%.0f)
variable select index 80567
group select id ${select}
group select id 80567
1 atoms in group select
if "${inside} == 0" then     "group select delete"     "variable select delete"     "next n"     "jump SELF jump"
group select delete
variable select delete
next n
jump SELF jump
variable select index $(random(1,atoms,364500):%.0f)
variable select index 55067
group select id ${select}
group select id 55067
1 atoms in group select
if "${inside} == 0" then     "group select delete"     "variable select delete"     "next n"     "jump SELF jump"
group select delete
variable select delete
next n
jump SELF jump
variable select index $(random(1,atoms,364500):%.0f)
variable select index 325149
group select id ${select}
group select id 325149
1 atoms in group select
if "${inside} == 0" then     "group select delete"     "variable select delete"     "next n"     "jump SELF jump"
group select delete
variable select delete
next n
jump SELF jump
variable select index $(random(1,atoms,364500):%.0f)
variable select index 187938
group select id ${select}
group select id 187938
1 atoms in group select
if "${inside} == 0" then     "group select delete"     "variable select delete"     "next n"     "jump SELF jump"
group select delete
variable select delete
next n
jump SELF jump
variable select index $(random(1,atoms,364500):%.0f)
variable select index 99188
group select id ${select}
group select id 99188
1 atoms in group select
if "${inside} == 0" then     "group select delete"     "variable select delete"     "next n"     "jump SELF jump"
group select delete
variable select delete
next n
jump SELF jump
variable select index $(random(1,atoms,364500):%.0f)
variable select index 289179
group select id ${select}
group select id 289179
1 atoms in group select
if "${inside} == 0" then     "group select delete"     "variable select delete"     "next n"     "jump SELF jump"
group select delete
variable select delete
next n
jump SELF jump
variable select index $(random(1,atoms,364500):%.0f)
variable select index 210969
group select id ${select}
group select id 210969
1 atoms in group select
if "${inside} == 0" then     "group select delete"     "variable select delete"     "next n"     "jump SELF jump"
group select delete
variable select delete
next n
jump SELF jump
variable select index $(random(1,atoms,364500):%.0f)
variable select index 145645
group select id ${select}
group select id 145645
1 atoms in group select
if "${inside} == 0" then     "group select delete"     "variable select delete"     "next n"     "jump SELF jump"
group select delete
variable select delete
next n
jump SELF jump
variable select index $(random(1,atoms,364500):%.0f)
variable select index 259004
group select id ${select}
group select id 259004
1 atoms in group select
if "${inside} == 0" then     "group select delete"     "variable select delete"     "next n"     "jump SELF jump"
group select delete
variable select delete
next n
jump SELF jump
variable select index $(random(1,atoms,364500):%.0f)
variable select index 35765
group select id ${select}
group select id 35765
1 atoms in group select
if "${inside} == 0" then     "group select delete"     "variable select delete"     "next n"     "jump SELF jump"
group select delete
variable select delete
next n
jump SELF jump
variable select index $(random(1,atoms,364500):%.0f)
variable select index 233291
group select id ${select}
group select id 233291
1 atoms in group select
if "${inside} == 0" then     "group select delete"     "variable select delete"     "next n"     "jump SELF jump"
group select delete
variable select delete
next n
jump SELF jump
variable select index $(random(1,atoms,364500):%.0f)
variable select index 181832
group select id ${select}
group select id 181832
1 atoms in group select
if "${inside} == 0" then     "group select delete"     "variable select delete"     "next n"     "jump SELF jump"
group select delete
variable select delete
next n
jump SELF jump
variable select index $(random(1,atoms,364500):%.0f)
variable select index 277428
group select id ${select}
group select id 277428
1 atoms in group select
if "${inside} == 0" then     "group select delete"     "variable select delete"     "next n"     "jump SELF jump"
group select delete
variable select delete
next n
jump SELF jump
variable select index $(random(1,atoms,364500):%.0f)
variable select index 285218
group select id ${select}
group select id 285218
1 atoms in group select
if "${inside} == 0" then     "group select delete"     "variable select delete"     "next n"     "jump SELF jump"
group select delete
variable select delete
next n
jump SELF jump
variable select index $(random(1,atoms,364500):%.0f)
variable select index 180204
group select id ${select}
group select id 180204
1 atoms in group select
if "${inside} == 0" then     "group select delete"     "variable select delete"     "next n"     "jump SELF jump"
group select delete
variable select delete
next n
jump SELF jump
variable select index $(random(1,atoms,364500):%.0f)
variable select index 57863
group select id ${select}
group select id 57863
1 atoms in group select
if "${inside} == 0" then     "group select delete"     "variable select delete"     "next n"     "jump SELF jump"
group select delete
variable select delete
next n
jump SELF jump
variable select index $(random(1,atoms,364500):%.0f)
variable select index 318461
group select id ${select}
group select id 318461
1 atoms in group select
if "${inside} == 0" then     "group select delete"     "variable select delete"     "next n"     "jump SELF jump"
group select delete
variable select delete
next n
jump SELF jump
variable select index $(random(1,atoms,364500):%.0f)
variable select index 66303
group select id ${select}
group select id 66303
1 atoms in group select
if "${inside} == 0" then     "group select delete"     "variable select delete"     "next n"     "jump SELF jump"
group select delete
variable select delete
next n
jump SELF jump
variable select index $(random(1,atoms,364500):%.0f)
variable select index 341615
group select id ${select}
group select id 341615
1 atoms in group select
if "${inside} == 0" then     "group select delete"     "variable select delete"     "next n"     "jump SELF jump"
group select delete
variable select delete
next n
jump SELF jump
variable select index $(random(1,atoms,364500):%.0f)
variable select index 334443
group select id ${select}
group select id 334443
1 atoms in group select
if "${inside} == 0" then     "group select delete"     "variable select delete"     "next n"     "jump SELF jump"
group select delete
variable select delete
next n
jump SELF jump
variable select index $(random(1,atoms,364500):%.0f)
variable select index 214018
group select id ${select}
group select id 214018
1 atoms in group select
if "${inside} == 0" then     "group select delete"     "variable select delete"     "next n"     "jump SELF jump"
group select delete
variable select delete
next n
jump SELF jump
variable select index $(random(1,atoms,364500):%.0f)
variable select index 146920
group select id ${select}
group select id 146920
1 atoms in group select
if "${inside} == 0" then     "group select delete"     "variable select delete"     "next n"     "jump SELF jump"
group select delete
variable select delete
next n
jump SELF jump
variable select index $(random(1,atoms,364500):%.0f)
variable select index 142389
group select id ${select}
group select id 142389
1 atoms in group select
if "${inside} == 0" then     "group select delete"     "variable select delete"     "next n"     "jump SELF jump"
group select delete
variable select delete
next n
jump SELF jump
variable select index $(random(1,atoms,364500):%.0f)
variable select index 218649
group select id ${select}
group select id 218649
1 atoms in group select
if "${inside} == 0" then     "group select delete"     "variable select delete"     "next n"     "jump SELF jump"
group select delete
variable select delete
next n
jump SELF jump
variable select index $(random(1,atoms,364500):%.0f)
variable select index 137308
group select id ${select}
group select id 137308
1 atoms in group select
if "${inside} == 0" then     "group select delete"     "variable select delete"     "next n"     "jump SELF jump"
group select delete
variable select delete
next n
jump SELF jump
variable select index $(random(1,atoms,364500):%.0f)
variable select index 350829
group select id ${select}
group select id 350829
1 atoms in group select
if "${inside} == 0" then     "group select delete"     "variable select delete"     "next n"     "jump SELF jump"
group select delete
variable select delete
next n
jump SELF jump
variable select index $(random(1,atoms,364500):%.0f)
variable select index 232329
group select id ${select}
group select id 232329
1 atoms in group select
if "${inside} == 0" then     "group select delete"     "variable select delete"     "next n"     "jump SELF jump"
group select delete
variable select delete
next n
jump SELF jump
variable select index $(random(1,atoms,364500):%.0f)
variable select index 236135
group select id ${select}
group select id 236135
1 atoms in group select
if "${inside} == 0" then     "group select delete"     "variable select delete"     "next n"     "jump SELF jump"
group select delete
variable select delete
next n
jump SELF jump
variable select index $(random(1,atoms,364500):%.0f)
variable select index 162434
group select id ${select}
group select id 162434
1 atoms in group select
if "${inside} == 0" then     "group select delete"     "variable select delete"     "next n"     "jump SELF jump"
group select delete
variable select delete
next n
jump SELF jump
variable select index $(random(1,atoms,364500):%.0f)
variable select index 312377
group select id ${select}
group select id 312377
1 atoms in group select
if "${inside} == 0" then     "group select delete"     "variable select delete"     "next n"     "jump SELF jump"
group select delete
variable select delete
next n
jump SELF jump
variable select index $(random(1,atoms,364500):%.0f)
variable select index 239246
group select id ${select}
group select id 239246
1 atoms in group select
if "${inside} == 0" then     "group select delete"     "variable select delete"     "next n"     "jump SELF jump"
group select delete
variable select delete
next n
jump SELF jump
variable select index $(random(1,atoms,364500):%.0f)
variable select index 75912
group select id ${select}
group select id 75912
1 atoms in group select
if "${inside} == 0" then     "group select delete"     "variable select delete"     "next n"     "jump SELF jump"
group select delete
variable select delete
next n
jump SELF jump
variable select index $(random(1,atoms,364500):%.0f)
variable select index 100786
group select id ${select}
group select id 100786
1 atoms in group select
if "${inside} == 0" then     "group select delete"     "variable select delete"     "next n"     "jump SELF jump"
group select delete
variable select delete
next n
jump SELF jump
variable select index $(random(1,atoms,364500):%.0f)
variable select index 177289
group select id ${select}
group select id 177289
1 atoms in group select
if "${inside} == 0" then     "group select delete"     "variable select delete"     "next n"     "jump SELF jump"
group select delete
variable select delete
next n
jump SELF jump
variable select index $(random(1,atoms,364500):%.0f)
variable select index 181581
group select id ${select}
group select id 181581
1 atoms in group select
if "${inside} == 0" then     "group select delete"     "variable select delete"     "next n"     "jump SELF jump"
group select delete
variable select delete
next n
jump SELF jump
variable select index $(random(1,atoms,364500):%.0f)
variable select index 322296
group select id ${select}
group select id 322296
1 atoms in group select
if "${inside} == 0" then     "group select delete"     "variable select delete"     "next n"     "jump SELF jump"
group select delete
variable select delete
next n
jump SELF jump
variable select index $(random(1,atoms,364500):%.0f)
variable select index 326564
group select id ${select}
group select id 326564
1 atoms in group select
if "${inside} == 0" then     "group select delete"     "variable select delete"     "next n"     "jump SELF jump"
group select delete
variable select delete
next n
jump SELF jump
variable select index $(random(1,atoms,364500):%.0f)
variable select index 312810
group select id ${select}
group select id 312810
1 atoms in group select
if "${inside} == 0" then     "group select delete"     "variable select delete"     "next n"     "jump SELF jump"
group select delete
variable select delete
next n
jump SELF jump
variable select index $(random(1,atoms,364500):%.0f)
variable select index 269183
group select id ${select}
group select id 269183
1 atoms in group select
if "${inside} == 0" then     "group select delete"     "variable select delete"     "next n"     "jump SELF jump"
group select delete
variable select delete
next n
jump SELF jump
variable select index $(random(1,atoms,364500):%.0f)
variable select index 219492
group select id ${select}
group select id 219492
1 atoms in group select
if "${inside} == 0" then     "group select delete"     "variable select delete"     "next n"     "jump SELF jump"
group select delete
variable select delete
next n
jump SELF jump
variable select index $(random(1,atoms,364500):%.0f)
variable select index 33698
group select id ${select}
group select id 33698
1 atoms in group select
if "${inside} == 0" then     "group select delete"     "variable select delete"     "next n"     "jump SELF jump"
group select delete
variable select delete
next n
jump SELF jump
variable select index $(random(1,atoms,364500):%.0f)
variable select index 221633
group select id ${select}
group select id 221633
1 atoms in group select
if "${inside} == 0" then     "group select delete"     "variable select delete"     "next n"     "jump SELF jump"
group select delete
variable select delete
next n
jump SELF jump
variable select index $(random(1,atoms,364500):%.0f)
variable select index 187810
group select id ${select}
group select id 187810
1 atoms in group select
if "${inside} == 0" then     "group select delete"     "variable select delete"     "next n"     "jump SELF jump"
group select delete
variable select delete
next n
jump SELF jump
variable select index $(random(1,atoms,364500):%.0f)
variable select index 312482
group select id ${select}
group select id 312482
1 atoms in group select
if "${inside} == 0" then     "group select delete"     "variable select delete"     "next n"     "jump SELF jump"
group select delete
variable select delete
next n
jump SELF jump
variable select index $(random(1,atoms,364500):%.0f)
variable select index 235317
group select id ${select}
group select id 235317
1 atoms in group select
if "${inside} == 0" then     "group select delete"     "variable select delete"     "next n"     "jump SELF jump"
group select delete
variable select delete
next n
jump SELF jump
variable select index $(random(1,atoms,364500):%.0f)
variable select index 312789
group select id ${select}
group select id 312789
1 atoms in group select
if "${inside} == 0" then     "group select delete"     "variable select delete"     "next n"     "jump SELF jump"
group select delete
variable select delete
next n
jump SELF jump
variable select index $(random(1,atoms,364500):%.0f)
variable select index 117032
group select id ${select}
group select id 117032
1 atoms in group select
if "${inside} == 0" then     "group select delete"     "variable select delete"     "next n"     "jump SELF jump"
group select delete
variable select delete
next n
jump SELF jump
variable select index $(random(1,atoms,364500):%.0f)
variable select index 224657
group select id ${select}
group select id 224657
1 atoms in group select
if "${inside} == 0" then     "group select delete"     "variable select delete"     "next n"     "jump SELF jump"
group select delete
variable select delete
next n
jump SELF jump
variable select index $(random(1,atoms,364500):%.0f)
variable select index 110155
group select id ${select}
group select id 110155
1 atoms in group select
if "${inside} == 0" then     "group select delete"     "variable select delete"     "next n"     "jump SELF jump"
group select delete
variable select delete
next n
jump SELF jump
variable select index $(random(1,atoms,364500):%.0f)
variable select index 206248
group select id ${select}
group select id 206248
1 atoms in group select
if "${inside} == 0" then     "group select delete"     "variable select delete"     "next n"     "jump SELF jump"
group select delete
variable select delete
next n
jump SELF jump
variable select index $(random(1,atoms,364500):%.0f)
variable select index 218847
group select id ${select}
group select id 218847
1 atoms in group select
if "${inside} == 0" then     "group select delete"     "variable select delete"     "next n"     "jump SELF jump"
group select delete
variable select delete
next n
jump SELF jump
variable select index $(random(1,atoms,364500):%.0f)
variable select index 115902
group select id ${select}
group select id 115902
1 atoms in group select
if "${inside} == 0" then     "group select delete"     "variable select delete"     "next n"     "jump SELF jump"
group select delete
variable select delete
next n
jump SELF jump
variable select index $(random(1,atoms,364500):%.0f)
variable select index 218890
group select id ${select}
group select id 218890
1 atoms in group select
if "${inside} == 0" then     "group select delete"     "variable select delete"     "next n"     "jump SELF jump"
group select delete
variable select delete
next n
jump SELF jump
variable select index $(random(1,atoms,364500):%.0f)
variable select index 296729
group select id ${select}
group select id 296729
1 atoms in group select
if "${inside} == 0" then     "group select delete"     "variable select delete"     "next n"     "jump SELF jump"
group select delete
variable select delete
next n
jump SELF jump
variable select index $(random(1,atoms,364500):%.0f)
variable select index 54051
group select id ${select}
group select id 54051
1 atoms in group select
if "${inside} == 0" then     "group select delete"     "variable select delete"     "next n"     "jump SELF jump"
group select delete
variable select delete
next n
jump SELF jump
variable select index $(random(1,atoms,364500):%.0f)
variable select index 229789
group select id ${select}
group select id 229789
1 atoms in group select
if "${inside} == 0" then     "group select delete"     "variable select delete"     "next n"     "jump SELF jump"
group select delete
variable select delete
next n
jump SELF jump
variable select index $(random(1,atoms,364500):%.0f)
variable select index 239454
group select id ${select}
group select id 239454
1 atoms in group select
if "${inside} == 0" then     "group select delete"     "variable select delete"     "next n"     "jump SELF jump"
group select delete
[...]

Nlocal:          91125 ave       91844 max       90544 min
Histogram: 2 0 0 0 0 0 0 1 0 1
Nghost:        40018.2 ave       40599 max       39299 min
Histogram: 1 0 1 0 0 0 0 0 0 2
Neighs:    5.86574e+06 ave 5.92449e+06 max 5.80447e+06 min
Histogram: 1 1 0 0 0 0 0 0 0 2

Total # of neighbors = 23462972
Ave neighs/atom = 64.370294
Neighbor list builds = 166
Dangerous builds = 0
if '$(time)>25' then 'write_data NiCoCrFe_pka_5keV_final.lmp' 'quit' 
No /omp style for force computation currently active
Per MPI rank memory allocation (min/avg/max) = 79.99 | 80.37 | 80.77 Mbytes
     Time         Step          Temp          Press          TotEng    
 1.8                18000   392.52063     -28387.094     -1554634.1    
 1.81               18100   392.55328     -28435.263     -1554634.1    
 1.82               18200   392.65894     -28494.908     -1554634      
 1.83               18300   392.89797     -28515.144     -1554634      
 1.84               18400   392.41454     -28509.468     -1554634      
 1.85               18500   392.20055     -28483.454     -1554634.2    
 1.86               18600   391.9654      -28440.268     -1554634.1    
 1.87               18700   390.78769     -28396.363     -1554634      
 1.88               18800   390.67768     -28369.319     -1554634      
 1.89               18900   391.18167     -28344.004     -1554634.1    
 1.9                19000   391.11545     -28313.323     -1554634.2    
Loop time of 448.496 on 16 procs for 1000 steps with 364500 atoms

Performance: 0.019 ns/day, 1245.823 hours/ns, 2.230 timesteps/s, 812.716 katom-step/s
97.0% CPU use with 4 MPI tasks x 4 OpenMP threads

MPI task timing breakdown:
Section |  min time  |  avg time  |  max time  |%varavg| %total
---------------------------------------------------------------
Pair    | 392.56     | 394.36     | 395.23     |   5.5 | 87.93
Neigh   | 23.663     | 23.826     | 24.008     |   2.5 |  5.31
Comm    | 18.684     | 19.656     | 21.72      |  27.5 |  4.38
Output  | 0.28839    | 0.30945    | 0.33039    |   2.8 |  0.07
Modify  | 9.4102     | 9.4903     | 9.5909     |   2.4 |  2.12
Other   |            | 0.8506     |            |       |  0.19

Nlocal:          91125 ave       91930 max       90414 min
Histogram: 2 0 0 0 0 0 0 0 1 1
Nghost:        40018.5 ave       40729 max       39213 min
Histogram: 1 1 0 0 0 0 0 0 0 2
Neighs:     5.8648e+06 ave 5.93167e+06 max 5.78657e+06 min
Histogram: 1 1 0 0 0 0 0 0 0 2

Total # of neighbors = 23459220
Ave neighs/atom = 64.36
Neighbor list builds = 166
Dangerous builds = 0
if '$(time)>25' then 'write_data NiCoCrFe_pka_5keV_final.lmp' 'quit' 
No /omp style for force computation currently active
Per MPI rank memory allocation (min/avg/max) = 80 | 80.38 | 80.77 Mbytes
     Time         Step          Temp          Press          TotEng    
 1.9                19000   391.11545     -28313.323     -1554634.2    
 1.91               19100   391.07512     -28300.158     -1554634.1    
 1.92               19200   391.15088     -28307.23      -1554634.1    
 1.93               19300   389.48173     -28309.186     -1554633.9    
 1.94               19400   390.29782     -28277.944     -1554634      
 1.95               19500   387.89554     -28303.657     -1554633.7    
 1.96               19600   390.31004     -28302.263     -1554634      
 1.97               19700   388.91146     -28328.851     -1554633.9    
 1.98               19800   389.7581      -28327.391     -1554634      
 1.99               19900   389.98001     -28333.624     -1554634.1    
 2                  20000   389.07056     -28321.25      -1554634.1    
Loop time of 466.863 on 16 procs for 1000 steps with 364500 atoms

Performance: 0.019 ns/day, 1296.841 hours/ns, 2.142 timesteps/s, 780.744 katom-step/s
98.4% CPU use with 4 MPI tasks x 4 OpenMP threads

MPI task timing breakdown:
Section |  min time  |  avg time  |  max time  |%varavg| %total
---------------------------------------------------------------
Pair    | 411.71     | 413.56     | 416.39     |   8.5 | 88.58
Neigh   | 25.22      | 25.278     | 25.342     |   1.0 |  5.41
Comm    | 14.582     | 17.498     | 19.308     |  42.1 |  3.75
Output  | 0.36138    | 0.38301    | 0.4043     |   2.6 |  0.08
Modify  | 9.3257     | 9.3409     | 9.3619     |   0.5 |  2.00
Other   |            | 0.8029     |            |       |  0.17

Nlocal:          91125 ave       91989 max       90310 min
Histogram: 2 0 0 0 0 0 0 0 1 1
Nghost:        40018.2 ave       40834 max       39154 min
Histogram: 1 1 0 0 0 0 0 0 0 2
Neighs:    5.86489e+06 ave 5.93831e+06 max 5.77695e+06 min
Histogram: 1 1 0 0 0 0 0 0 0 2

Total # of neighbors = 23459570
Ave neighs/atom = 64.36096
Neighbor list builds = 166
Dangerous builds = 0
if '$(time)>25' then 'write_data NiCoCrFe_pka_5keV_final.lmp' 'quit' 
No /omp style for force computation currently active
Per MPI rank memory allocation (min/avg/max) = 80 | 80.38 | 80.77 Mbytes
     Time         Step          Temp          Press          TotEng    
 2                  20000   389.07056     -28321.25      -1554634.1    
 2.01               20100   389.58083     -28275.794     -1554634.1    
 2.02               20200   387.57713     -28237.956     -1554633.9    
 2.03               20300   389.04841     -28198.221     -1554634.1    
 2.04               20400   385.67502     -28216.103     -1554633.5    
 2.05               20500   388.71994     -28167.117     -1554634.1    
 2.06               20600   387.49298     -28146.239     -1554634.3    
 2.07               20700   387.67327     -28124.245     -1554634.1    
 2.08               20800   387.63227     -28131.799     -1554634.1    
 2.09               20900   387.60774     -28156.715     -1554634.1    
 2.1                21000   387.33053     -28174.446     -1554634.1    
Loop time of 420.391 on 16 procs for 1000 steps with 364500 atoms

Performance: 0.021 ns/day, 1167.752 hours/ns, 2.379 timesteps/s, 867.051 katom-step/s
99.6% CPU use with 4 MPI tasks x 4 OpenMP threads

MPI task timing breakdown:
Section |  min time  |  avg time  |  max time  |%varavg| %total
---------------------------------------------------------------
Pair    | 367.07     | 369.78     | 371.22     |   8.5 | 87.96
Neigh   | 23.521     | 23.841     | 24.081     |   4.1 |  5.67
Comm    | 14.868     | 16.426     | 19.121     |  42.0 |  3.91
Output  | 0.26375    | 0.28747    | 0.30967    |   3.2 |  0.07
Modify  | 9.2551     | 9.3078     | 9.3808     |   1.6 |  2.21
Other   |            | 0.7526     |            |       |  0.18

Nlocal:          91125 ave       91978 max       90231 min
Histogram: 2 0 0 0 0 0 0 0 0 2
Nghost:        40018.2 ave       40912 max       39165 min
Histogram: 2 0 0 0 0 0 0 0 0 2
Neighs:    5.86267e+06 ave 5.94769e+06 max 5.76821e+06 min
Histogram: 1 1 0 0 0 0 0 0 0 2

Total # of neighbors = 23450670
Ave neighs/atom = 64.336543
Neighbor list builds = 166
Dangerous builds = 0
if '$(time)>25' then 'write_data NiCoCrFe_pka_5keV_final.lmp' 'quit' 
No /omp style for force computation currently active
Per MPI rank memory allocation (min/avg/max) = 80 | 80.48 | 80.78 Mbytes
     Time         Step          Temp          Press          TotEng    
 2.1                21000   387.33053     -28174.446     -1554634.1    
 2.11               21100   387.00528     -28146.36      -1554634.2    
 2.12               21200   385.8093      -28086.806     -1554634      
 2.13               21300   385.98751     -28061.335     -1554634.2    
 2.14               21400   386.4789      -28078.568     -1554634.1    
 2.15               21500   386.32425     -28097.115     -1554634      
 2.16               21600   384.18534     -28075.463     -1554634.2    
 2.17               21700   384.9355      -27971.124     -1554634.1    
 2.18               21800   384.06539     -27929.628     -1554634.2    
 2.19               21900   384.66652     -27949.951     -1554634.1    
 2.2                22000   385.03262     -27981.634     -1554634.1    
Loop time of 454.608 on 16 procs for 1000 steps with 364500 atoms

Performance: 0.019 ns/day, 1262.801 hours/ns, 2.200 timesteps/s, 801.789 katom-step/s
99.2% CPU use with 4 MPI tasks x 4 OpenMP threads

MPI task timing breakdown:
Section |  min time  |  avg time  |  max time  |%varavg| %total
---------------------------------------------------------------
Pair    | 403.43     | 405.55     | 406.32     |   6.1 | 89.21
Neigh   | 22.284     | 22.485     | 22.738     |   3.5 |  4.95
Comm    | 15.233     | 16.117     | 18.238     |  30.7 |  3.55
Output  | 0.28093    | 0.30406    | 0.32682    |   3.1 |  0.07
Modify  | 9.2455     | 9.3139     | 9.3736     |   2.0 |  2.05
Other   |            | 0.8379     |            |       |  0.18

Nlocal:          91125 ave       91978 max       90129 min
Histogram: 1 1 0 0 0 0 0 0 0 2
Nghost:        40018.5 ave       41016 max       39165 min
Histogram: 2 0 0 0 0 0 0 0 1 1
Neighs:    5.86202e+06 ave 5.95266e+06 max 5.75946e+06 min
Histogram: 1 0 1 0 0 0 0 0 0 2

Total # of neighbors = 23448072
Ave neighs/atom = 64.329416
Neighbor list builds = 155
Dangerous builds = 0
if '$(time)>25' then 'write_data NiCoCrFe_pka_5keV_final.lmp' 'quit' 
No /omp style for force computation currently active
Per MPI rank memory allocation (min/avg/max) = 80 | 80.48 | 80.78 Mbytes
     Time         Step          Temp          Press          TotEng    
 2.2                22000   385.03262     -27981.634     -1554634.1    
 2.21               22100   383.6588      -27981.154     -1554633.9    
 2.22               22200   384.64387     -27950.364     -1554634.1    
 2.23               22300   383.4062      -27907.786     -1554634.2    
 2.24               22400   383.23888     -27891.973     -1554634.1    
 2.25               22500   383.59198     -27898.66      -1554634.1    
 2.26               22600   380.78789     -27933.428     -1554634.1    
 2.27               22700   383.36626     -27884.714     -1554634.1    
 2.28               22800   382.77197     -27845.329     -1554634.1    
 2.29               22900   382.3134      -27821.386     -1554634.1    
 2.3                23000   381.53335     -27783.762     -1554634.1    
Loop time of 411.884 on 16 procs for 1000 steps with 364500 atoms

Performance: 0.021 ns/day, 1144.123 hours/ns, 2.428 timesteps/s, 884.957 katom-step/s
99.0% CPU use with 4 MPI tasks x 4 OpenMP threads

MPI task timing breakdown:
Section |  min time  |  avg time  |  max time  |%varavg| %total
---------------------------------------------------------------
Pair    | 361.92     | 363.94     | 366.13     |   7.9 | 88.36
Neigh   | 21.064     | 21.38      | 21.621     |   4.5 |  5.19
Comm    | 13.602     | 16.025     | 18.377     |  42.6 |  3.89
Output  | 0.27307    | 0.29469    | 0.31559    |   2.9 |  0.07
Modify  | 9.2742     | 9.3553     | 9.4483     |   2.3 |  2.27
Other   |            | 0.893      |            |       |  0.22

Nlocal:          91125 ave       92180 max       89954 min
Histogram: 1 1 0 0 0 0 0 0 0 2
Nghost:          40019 ave       41189 max       38963 min
Histogram: 2 0 0 0 0 0 0 0 1 1
Neighs:    5.86032e+06 ave 5.96704e+06 max 5.74335e+06 min
Histogram: 1 0 1 0 0 0 0 0 1 1

Total # of neighbors = 23441274
Ave neighs/atom = 64.310765
Neighbor list builds = 142
Dangerous builds = 0
if '$(time)>25' then 'write_data NiCoCrFe_pka_5keV_final.lmp' 'quit' 
No /omp style for force computation currently active
Per MPI rank memory allocation (min/avg/max) = 80.01 | 80.49 | 80.78 Mbytes
     Time         Step          Temp          Press          TotEng    
 2.3                23000   381.53335     -27783.762     -1554634.1    
 2.31               23100   381.30756     -27743.368     -1554634.1    
 2.32               23200   381.50376     -27714.277     -1554634.1    
 2.33               23300   381.60155     -27708.629     -1554634.1    
 2.34               23400   381.69944     -27690.402     -1554634.1    
 2.35               23500   380.90855     -27667.917     -1554634.1    
 2.36               23600   380.63422     -27654.922     -1554630.1    
 2.37               23700   380.54006     -27673.465     -1554630.1    
 2.38               23800   380.31883     -27689.566     -1554630.1    
 2.39               23900   380.19068     -27686.657     -1554630.1    
 2.4                24000   379.89614     -27682.866     -1554630.2    
Loop time of 439.489 on 16 procs for 1000 steps with 364500 atoms

Performance: 0.020 ns/day, 1220.804 hours/ns, 2.275 timesteps/s, 829.372 katom-step/s
99.1% CPU use with 4 MPI tasks x 4 OpenMP threads

MPI task timing breakdown:
Section |  min time  |  avg time  |  max time  |%varavg| %total
---------------------------------------------------------------
Pair    | 390.18     | 393.16     | 395.19     |   9.4 | 89.46
Neigh   | 20.36      | 20.507     | 20.762     |   3.4 |  4.67
Comm    | 12.942     | 15.261     | 18.418     |  51.7 |  3.47
Output  | 0.28386    | 0.30415    | 0.32388    |   2.7 |  0.07
Modify  | 9.289      | 9.365      | 9.4286     |   1.9 |  2.13
Other   |            | 0.8915     |            |       |  0.20

Nlocal:          91125 ave       92314 max       89905 min
Histogram: 1 1 0 0 0 0 0 0 1 1
Nghost:        40020.8 ave       41241 max       38833 min
Histogram: 1 1 0 0 0 0 0 0 1 1
Neighs:     5.8592e+06 ave 5.97782e+06 max 5.73658e+06 min
Histogram: 1 0 1 0 0 0 0 0 1 1

Total # of neighbors = 23436781
Ave neighs/atom = 64.298439
Neighbor list builds = 141
Dangerous builds = 0
if '$(time)>25' then 'write_data NiCoCrFe_pka_5keV_final.lmp' 'quit' 
No /omp style for force computation currently active
Per MPI rank memory allocation (min/avg/max) = 80.01 | 80.49 | 80.79 Mbytes
     Time         Step          Temp          Press          TotEng    
 2.4                24000   379.89614     -27682.866     -1554630.2    
 2.41               24100   379.07814     -27658.439     -1554630.1    
 2.42               24200   378.87505     -27607.949     -1554630.1    
 2.43               24300   377.88821     -27580.18      -1554630.1    
 2.44               24400   378.62588     -27570.682     -1554630.1    
 2.45               24500   377.53295     -27569.199     -1554630      
 2.46               24600   377.99783     -27549.281     -1554630.1    
 2.47               24700   378.18391     -27538.147     -1554630.1    
 2.48               24800   377.36216     -27486.732     -1554630.1    
 2.49               24900   376.9628      -27443.445     -1554630.1    
 2.5                25000   374.63346     -27413.671     -1554630.1    
Loop time of 414.555 on 16 procs for 1000 steps with 364500 atoms

Performance: 0.021 ns/day, 1151.541 hours/ns, 2.412 timesteps/s, 879.257 katom-step/s
98.6% CPU use with 4 MPI tasks x 4 OpenMP threads

MPI task timing breakdown:
Section |  min time  |  avg time  |  max time  |%varavg| %total
---------------------------------------------------------------
Pair    | 365.92     | 369.82     | 371.91     |  12.0 | 89.21
Neigh   | 17.957     | 18.164     | 18.374     |   3.5 |  4.38
Comm    | 13.815     | 15.91      | 19.8       |  57.7 |  3.84
Output  | 0.26861    | 0.29043    | 0.31193    |   3.0 |  0.07
Modify  | 9.3198     | 9.4004     | 9.4871     |   1.9 |  2.27
Other   |            | 0.9755     |            |       |  0.24

Nlocal:          91125 ave       92421 max       89725 min
Histogram: 1 0 1 0 0 0 0 0 1 1
Nghost:        40021.5 ave       41420 max       38730 min
Histogram: 1 1 0 0 0 0 0 1 0 1
Neighs:    5.85765e+06 ave 5.98724e+06 max 5.72233e+06 min
Histogram: 1 0 1 0 0 0 0 0 1 1

Total # of neighbors = 23430593
Ave neighs/atom = 64.281462
Neighbor list builds = 125
Dangerous builds = 0
if '$(time)>25' then 'write_data NiCoCrFe_pka_5keV_final.lmp' 'quit' 
No /omp style for force computation currently active
Per MPI rank memory allocation (min/avg/max) = 80.02 | 80.5 | 80.8 Mbytes
     Time         Step          Temp          Press          TotEng    
 2.5                25000   374.63346     -27413.671     -1554630.1    
 2.51               25100   375.92544     -27375.136     -1554630.1    
 2.52               25200   375.19524     -27359.183     -1554630.1    
 2.53               25300   375.18236     -27351.632     -1554630.1    
 2.54               25400   374.58568     -27300.973     -1554630.1    
 2.55               25500   374.37304     -27283.298     -1554630.1    
 2.56               25600   374.05591     -27276.257     -1554630.1    
 2.57               25700   373.64613     -27269.205     -1554630.1    
 2.58               25800   372.15663     -27225.472     -1554630.1    
 2.59               25900   370.60435     -27204.834     -1554630      
 2.6                26000   371.98011     -27151.133     -1554630.1    
Loop time of 444.301 on 16 procs for 1000 steps with 364500 atoms

Performance: 0.019 ns/day, 1234.169 hours/ns, 2.251 timesteps/s, 820.390 katom-step/s
97.2% CPU use with 4 MPI tasks x 4 OpenMP threads

MPI task timing breakdown:
Section |  min time  |  avg time  |  max time  |%varavg| %total
---------------------------------------------------------------
Pair    | 398.99     | 401.48     | 404.2      |  10.1 | 90.36
Neigh   | 15.265     | 15.479     | 15.724     |   5.4 |  3.48
Comm    | 13.425     | 16.325     | 19.055     |  55.0 |  3.67
Output  | 0.42458    | 0.45925    | 0.49351    |   3.8 |  0.10
Modify  | 9.3836     | 9.4563     | 9.566      |   2.3 |  2.13
Other   |            | 1.098      |            |       |  0.25

Nlocal:          91125 ave       92449 max       89738 min
Histogram: 1 1 0 0 0 0 0 0 1 1
Nghost:          40023 ave       41410 max       38704 min
Histogram: 1 1 0 0 0 0 0 0 1 1
Neighs:    5.85437e+06 ave 5.98418e+06 max 5.71961e+06 min
Histogram: 1 0 1 0 0 0 0 0 1 1

Total # of neighbors = 23417496
Ave neighs/atom = 64.245531
Neighbor list builds = 109
Dangerous builds = 0
if '$(time)>25' then 'write_data NiCoCrFe_pka_5keV_final.lmp' 'quit' 
No /omp style for force computation currently active
Per MPI rank memory allocation (min/avg/max) = 80.02 | 80.5 | 80.8 Mbytes
     Time         Step          Temp          Press          TotEng    
 2.6                26000   371.98011     -27151.133     -1554630.1    
 2.61               26100   371.23359     -27107.63      -1554630.1    
 2.62               26200   370.32758     -27101.869     -1554630.1    
 2.63               26300   370.50898     -27096.385     -1554630.1    
 2.64               26400   370.19936     -27084.328     -1554630.1    
 2.65               26500   369.95267     -27037.587     -1554630.1    
 2.66               26600   367.78356     -27011.516     -1554630.1    
 2.67               26700   367.87472     -27010.011     -1554630.1    
 2.68               26800   368.06271     -26950.07      -1554630.1    
 2.69               26900   367.44963     -26875.601     -1554630.1    
 2.7                27000   366.48712     -26793.977     -1554630.1    
Loop time of 500.526 on 16 procs for 1000 steps with 364500 atoms

Performance: 0.017 ns/day, 1390.349 hours/ns, 1.998 timesteps/s, 728.234 katom-step/s
90.3% CPU use with 4 MPI tasks x 4 OpenMP threads

MPI task timing breakdown:
Section |  min time  |  avg time  |  max time  |%varavg| %total
---------------------------------------------------------------
Pair    | 452.42     | 455.53     | 458.21     |  10.4 | 91.01
Neigh   | 12.291     | 12.464     | 12.705     |   4.3 |  2.49
Comm    | 18.163     | 20.699     | 24.077     |  51.5 |  4.14
Output  | 0.48818    | 0.52994    | 0.56862    |   4.1 |  0.11
Modify  | 9.6427     | 9.7071     | 9.7451     |   1.3 |  1.94
Other   |            | 1.598      |            |       |  0.32

Nlocal:          91125 ave       92439 max       89839 min
Histogram: 1 1 0 0 0 0 0 0 1 1
Nghost:        40021.8 ave       41307 max       38711 min
Histogram: 1 1 0 0 0 0 0 0 1 1
Neighs:    5.85258e+06 ave 5.97653e+06 max 5.72625e+06 min
Histogram: 1 1 0 0 0 0 0 0 1 1

Total # of neighbors = 23410301
Ave neighs/atom = 64.225791
Neighbor list builds = 85
Dangerous builds = 0
