LAMMPS (2 Aug 2023 - Update 2)
  using 4 OpenMP thread(s) per MPI task
Loaded 1 plugins from C:\Users\Ratish Panda\AppData\Local\LAMMPS 64-bit 2Aug2023\plugins
# LAMMPS input script for relaxation of FCC Nickel crystal with 3D PBC and NPT ensemble
# Includes periodic dumping of atomic configurations

# Initialize
units metal
boundary p p p
atom_style atomic

# Read data file
read_data Ni_crystal.lmp
Reading data file ...
  orthogonal box = (0 0 0) to (158.4 158.4 158.4)
  1 by 1 by 1 MPI processor grid
  reading atoms ...
  364500 atoms
  read_data CPU = 0.978 seconds

# Define potential (EAM potential for Nickel)
pair_style eam
pair_coeff * * Ni_u3.eam
Reading eam potential file Ni_u3.eam with DATE: 2007-06-11

# Define relaxation parameters
reset_timestep 0
timestep 0.01
thermo 100
thermo_style custom step temp press etotal

# Dump settings for atomic configurations
dump 1 all custom 1000 Ni_relaxed_*.dump id type x y z vx vy vz fx fy fz
dump_modify 1 sort id

# Relaxation run in NPT ensemble for 100 ps
fix 1 all npt temp 300 300 0.1 iso 0.0 0.0 1000.0 drag 1.0
run 10000
Neighbor list info ...
  update: every = 1 steps, delay = 0 steps, check = yes
  max neighbors/atom: 2000, page size: 100000
  master list distance cutoff = 6.8
  ghost atom cutoff = 6.8
  binsize = 3.4, bins = 47 47 47
  1 neighbor lists, perpetual/occasional/extra = 1 0 0
  (1) pair eam, perpetual
      attributes: half, newton on
      pair build: half/bin/atomonly/newton
      stencil: half/bin/3d
      bin: standard
Per MPI rank memory allocation (min/avg/max) = 224 | 224 | 224 Mbytes
   Step          Temp          Press          TotEng    
         0   0             -0.12038609    -1622025      
       100   1.0246206e-21 -0.1203003     -1622025      
       200   2.9270848e-21 -0.12004328    -1622025      
       300   5.575707e-21  -0.11961573    -1622025      
       400   1.1288154e-20 -0.11901861    -1622025      
       500   1.8872179e-20 -0.11825311    -1622025      
       600   3.6436637e-20 -0.11732064    -1622025      
       700   5.8321689e-20 -0.11622287    -1622025      
       800   1.0828691e-19 -0.1149617     -1622025      
       900   1.6970361e-19 -0.11353924    -1622025      
      1000   3.091001e-19  -0.11195785    -1622025      
      1100   5.1376239e-19 -0.11022008    -1622025      
      1200   9.5745906e-19 -0.10832871    -1622025      
      1300   1.5221748e-18 -0.10628675    -1622025      
      1400   2.6077101e-18 -0.10409742    -1622025      
      1500   4.1393924e-18 -0.1017641     -1622025      
      1600   7.36786e-18   -0.099290425   -1622025      
      1700   1.2489443e-17 -0.096680174   -1622025      
      1800   2.1973126e-17 -0.093937361   -1622025      
      1900   3.6080774e-17 -0.091066135   -1622025      
      2000   5.8351354e-17 -0.088070839   -1622025      
      2100   1.0245162e-16 -0.084955986   -1622025      
      2200   1.7739768e-16 -0.081726244   -1622025      
      2300   3.1433675e-16 -0.078386426   -1622025      
      2400   5.2340969e-16 -0.074941541   -1622025      
      2500   8.9750984e-16 -0.07139666    -1622025      
      2600   1.3961046e-15 -0.067757054   -1622025      
      2700   2.4798149e-15 -0.064028103   -1622025      
      2800   4.1072635e-15 -0.06021527    -1622025      
      2900   7.5772184e-15 -0.056324164   -1622025      
      3000   1.2232977e-14 -0.052360466   -1622025      
      3100   2.1590927e-14 -0.048329975   -1622025      
      3200   3.3817081e-14 -0.044238535   -1622025      
      3300   5.985261e-14  -0.040092123   -1622025      
      3400   1.0301737e-13 -0.035896734   -1622025      
      3500   1.9172584e-13 -0.031658447   -1622025      
      3600   3.1538116e-13 -0.027383368   -1622025      
      3700   5.3375745e-13 -0.023077674   -1622025      
      3800   8.2981336e-13 -0.018747557   -1622025      
      3900   1.4738337e-12 -0.014399223   -1622025      
      4000   2.4946385e-12 -0.010038895   -1622025      
      4100   4.3665559e-12 -0.0056728061  -1622025      
      4200   7.1126091e-12 -0.0013071867  -1622025      
      4300   1.2225647e-11  0.0030517555  -1622025      
      4400   1.9811676e-11  0.0073978093  -1622025      
      4500   3.5755714e-11  0.011724836   -1622025      
      4600   6.0686938e-11  0.016026684   -1622025      
      4700   1.1020616e-10  0.020297289   -1622025      
      4800   1.7623305e-10  0.024530638   -1622025      
      4900   3.1039519e-10  0.028720776   -1622025      
      5000   4.940077e-10   0.032861833   -1622025      
      5100   8.7152106e-10  0.036948006   -1622025      
      5200   1.4760093e-09  0.040973586   -1622025      
      5300   2.7043231e-09  0.044932962   -1622025      
      5400   4.2321353e-09  0.048820698   -1622025      
      5500   7.4629799e-09  0.052631357   -1622025      
      5600   1.2262182e-08  0.056359883   -1622025      
      5700   2.3032222e-08  0.060001049   -1622025      
      5800   4.1576203e-08  0.063550211   -1622025      
      5900   7.922118e-08   0.067002699   -1622025      
      6000   1.4478851e-07  0.070355174   -1622025      
      6100   2.8629548e-07  0.073604232   -1622025      
      6200   6.1885387e-07  0.076748219   -1622025      
      6300   1.4526505e-06  0.07978849    -1622025      
      6400   3.5955119e-06  0.0827367     -1622025      
      6500   9.335997e-06   0.085626586   -1622025      
      6600   2.5235669e-05  0.088547963   -1622025      
      6700   6.9680199e-05  0.091772994   -1622025      
      6800   0.00019691616  0.095970114   -1622025      
      6900   0.00056027263  0.1032029     -1622025      
      7000   0.0016068382   0.1190275     -1622024.9    
      7100   0.004615275    0.16008679    -1622024.8    
      7200   0.013291476    0.27323052    -1622024.4    
      7300   0.03831259     0.5949422     -1622023.2    
      7400   0.1105586      1.5150759     -1622019.8    
      7500   0.31904293     4.162723      -1622010      
      7600   0.92015353     11.777542     -1621981.6    
      7700   2.6468405      33.642141     -1621900.3    
      7800   7.5561991      95.76891      -1621668.9    
      7900   21.109779      267.24757     -1621030.3    
      8000   55.642979      703.97979     -1619403.2    
      8100   127.65914      1614.3194     -1616010      
      8200   226.24048      2858.6592     -1611365.3    
      8300   290.63797      3666.1048     -1608331.1    
      8400   299.99766      3771.4342     -1607890.1    
      8500   299.99942      3752.9487     -1607890      
      8600   299.99977      3729.0507     -1607890      
      8700   299.99969      3699.906      -1607890      
      8800   299.99982      3665.527      -1607890      
      8900   299.99953      3626.0164     -1607890      
      9000   299.99937      3581.4061     -1607890      
      9100   299.9989       3531.8096     -1607890      
      9200   299.99909      3477.2496     -1607889.9    
      9300   299.99943      3417.8554     -1607889.9    
      9400   299.99995      3353.7314     -1607889.9    
      9500   299.99966      3285.0554     -1607889.8    
      9600   299.99931      3211.9066     -1607889.8    
      9700   299.99888      3134.4176     -1607889.7    
      9800   299.99891      3052.6965     -1607889.6    
      9900   299.99961      2966.883      -1607889.6    
     10000   299.99932      2877.2469     -1607889.5    
Loop time of 3550.37 on 4 procs for 10000 steps with 364500 atoms

Performance: 2.434 ns/day, 9.862 hours/ns, 2.817 timesteps/s, 1.027 Matom-step/s
91.3% CPU use with 1 MPI tasks x 4 OpenMP threads

MPI task timing breakdown:
Section |  min time  |  avg time  |  max time  |%varavg| %total
---------------------------------------------------------------
Pair    | 3278.5     | 3278.5     | 3278.5     |   0.0 | 92.34
Neigh   | 16.817     | 16.817     | 16.817     |   0.0 |  0.47
Comm    | 17.72      | 17.72      | 17.72      |   0.0 |  0.50
Output  | 17.468     | 17.468     | 17.468     |   0.0 |  0.49
Modify  | 188.63     | 188.63     | 188.63     |   0.0 |  5.31
Other   |            | 31.27      |            |       |  0.88

Nlocal:         364500 ave      364500 max      364500 min
Histogram: 1 0 0 0 0 0 0 0 0 0
Nghost:         106096 ave      106096 max      106096 min
Histogram: 1 0 0 0 0 0 0 0 0 0
Neighs:    2.44215e+07 ave 2.44215e+07 max 2.44215e+07 min
Histogram: 1 0 0 0 0 0 0 0 0 0

Total # of neighbors = 24421500
Ave neighs/atom = 67
Neighbor list builds = 71
Dangerous builds = 0

# Write relaxed structure
write_data Ni_relaxed.lmp
System init for write_data ...
Total wall time: 0:59:14
