LAMMPS (2 Aug 2023 - Update 2)
OMP_NUM_THREADS environment is not set. Defaulting to 1 thread. (src/comm.cpp:98)
  using 1 OpenMP thread(s) per MPI task
Loaded 1 plugins from C:\Users\Ratish Panda\AppData\Local\LAMMPS 64-bit 2Aug2023-MSMPI with Python\plugins
# LAMMPS input script for PKA radiation damage in NiCoCrFe at 5 keV
# Establish crystal model, apply 3D PBC, introduce PKA, simulate damage
# Note: PKA is introduced along the X-axis direction in this simulation

# Initialize
units metal
boundary p p p
atom_style atomic

# Specify the number of OpenMP threads
package omp 4
set 4 OpenMP thread(s) per MPI task
using multi-threaded neighbor list subroutines

# Read relaxed data file (output from relaxation)
read_data NiCoCrFe_relaxed.lmp
Reading data file ...
  orthogonal box = (0.80381162 0.80381162 0.80381162) to (161.64619 161.64619 161.64619)
  2 by 1 by 2 MPI processor grid
  reading atoms ...
  364500 atoms
  reading velocities ...
  364500 velocities
  read_data CPU = 3.724 seconds

# Define potential (EAM potential for Nickel)
pair_style eam/alloy
pair_coeff * * FeNiCrCoCu-heafixed.setfl Ni Co Cr Fe

neighbor	 1 bin
neigh_modify every 1 delay 0 check yes

# Define thermodynamic dump parameters
reset_timestep 0
thermo 100
thermo_style custom time step temp press etotal

# Apply 3D periodic boundary conditions (already applied by 'read_data')
# No need for create_box or create_atoms

# Dump settings for atomic configurations (optional)
# Use if you want to visualize the simulation progress
dump 1 all custom 1000 NiCoCrFe_pka_5kev_*.dump id type x y z
dump_modify 1 sort id

# PKA radiation damage process
# Define PKA properties
variable pka_energy equal 5.0  # PKA energy in keV
variable pka_direction_x equal 1  # PKA direction x-component
variable pka_direction_y equal 0  # PKA direction y-component
variable pka_direction_z equal 0  # PKA direction z-component

# Calculate center of the simulation cell
variable cell_center_x equal lx/2
variable cell_center_y equal ly/2
variable cell_center_z equal lz/2

# Define radius for selecting recoil atom
variable radius equal 5.0 # This encompasses a bunch of central atoms - at least one should be an Fe atom

# Pick a random atom near the center as the recoil atom
region center_sphere sphere ${cell_center_x} ${cell_center_y} ${cell_center_z} ${radius}
region center_sphere sphere 80.4211883806387 ${cell_center_y} ${cell_center_z} ${radius}
region center_sphere sphere 80.4211883806387 80.4211883806387 ${cell_center_z} ${radius}
region center_sphere sphere 80.4211883806387 80.4211883806387 80.4211883806387 ${radius}
region center_sphere sphere 80.4211883806387 80.4211883806387 80.4211883806387 5

# Create a group of atoms within the defined center region
group center_atoms region center_sphere
44 atoms in group center_atoms

# Create a group of Fe atoms
group fe_atoms type 2 # type 2 is Fe
91125 atoms in group fe_atoms

# PKA velocity is determined by mass of Fe atom, which is selected as PKA atom
# Set PKA velocity to 1314 angstroms per picosecond in specified direction
variable pka_velocity equal 1314.0

region select sphere ${cell_center_x} ${cell_center_y} ${cell_center_z} ${radius}
region select sphere 80.4211883806387 ${cell_center_y} ${cell_center_z} ${radius}
region select sphere 80.4211883806387 80.4211883806387 ${cell_center_z} ${radius}
region select sphere 80.4211883806387 80.4211883806387 80.4211883806387 ${radius}
region select sphere 80.4211883806387 80.4211883806387 80.4211883806387 5
group select empty
0 atoms in group select
variable inside equal count(select,select) #there should not be any empty space between select and select (very hard to debug)
variable n loop 400000 # set to 400000, more than number of atoms in sim cell

label jump
variable select index $(random(1,atoms,364500):%.0f)
variable select index 296858
group select id ${select}
group select id 296858
1 atoms in group select
if "${inside} == 0" then     "group select delete"     "variable select delete"     "next n"     "jump SELF jump"
group select delete
variable select delete
next n
jump SELF jump
variable select index $(random(1,atoms,364500):%.0f)
variable select index 201280
group select id ${select}
group select id 201280
1 atoms in group select
if "${inside} == 0" then     "group select delete"     "variable select delete"     "next n"     "jump SELF jump"
group select delete
variable select delete
next n
jump SELF jump
variable select index $(random(1,atoms,364500):%.0f)
variable select index 132091
group select id ${select}
group select id 132091
1 atoms in group select
if "${inside} == 0" then     "group select delete"     "variable select delete"     "next n"     "jump SELF jump"
group select delete
variable select delete
next n
jump SELF jump
variable select index $(random(1,atoms,364500):%.0f)
variable select index 38085
group select id ${select}
group select id 38085
1 atoms in group select
if "${inside} == 0" then     "group select delete"     "variable select delete"     "next n"     "jump SELF jump"
group select delete
variable select delete
next n
jump SELF jump
variable select index $(random(1,atoms,364500):%.0f)
variable select index 263551
group select id ${select}
group select id 263551
1 atoms in group select
if "${inside} == 0" then     "group select delete"     "variable select delete"     "next n"     "jump SELF jump"
group select delete
variable select delete
next n
jump SELF jump
variable select index $(random(1,atoms,364500):%.0f)
variable select index 253872
group select id ${select}
group select id 253872
1 atoms in group select
if "${inside} == 0" then     "group select delete"     "variable select delete"     "next n"     "jump SELF jump"
group select delete
variable select delete
next n
jump SELF jump
variable select index $(random(1,atoms,364500):%.0f)
variable select index 172830
group select id ${select}
group select id 172830
1 atoms in group select
if "${inside} == 0" then     "group select delete"     "variable select delete"     "next n"     "jump SELF jump"
group select delete
variable select delete
next n
jump SELF jump
variable select index $(random(1,atoms,364500):%.0f)
variable select index 150260
group select id ${select}
group select id 150260
1 atoms in group select
if "${inside} == 0" then     "group select delete"     "variable select delete"     "next n"     "jump SELF jump"
group select delete
variable select delete
next n
jump SELF jump
variable select index $(random(1,atoms,364500):%.0f)
variable select index 301592
group select id ${select}
group select id 301592
1 atoms in group select
if "${inside} == 0" then     "group select delete"     "variable select delete"     "next n"     "jump SELF jump"
group select delete
variable select delete
next n
jump SELF jump
variable select index $(random(1,atoms,364500):%.0f)
variable select index 51471
group select id ${select}
group select id 51471
1 atoms in group select
if "${inside} == 0" then     "group select delete"     "variable select delete"     "next n"     "jump SELF jump"
group select delete
variable select delete
next n
jump SELF jump
variable select index $(random(1,atoms,364500):%.0f)
variable select index 279840
group select id ${select}
group select id 279840
1 atoms in group select
if "${inside} == 0" then     "group select delete"     "variable select delete"     "next n"     "jump SELF jump"
group select delete
variable select delete
next n
jump SELF jump
variable select index $(random(1,atoms,364500):%.0f)
variable select index 209519
group select id ${select}
group select id 209519
1 atoms in group select
if "${inside} == 0" then     "group select delete"     "variable select delete"     "next n"     "jump SELF jump"
group select delete
variable select delete
next n
jump SELF jump
variable select index $(random(1,atoms,364500):%.0f)
variable select index 292929
group select id ${select}
group select id 292929
1 atoms in group select
if "${inside} == 0" then     "group select delete"     "variable select delete"     "next n"     "jump SELF jump"
group select delete
variable select delete
next n
jump SELF jump
variable select index $(random(1,atoms,364500):%.0f)
variable select index 338241
group select id ${select}
group select id 338241
1 atoms in group select
if "${inside} == 0" then     "group select delete"     "variable select delete"     "next n"     "jump SELF jump"
group select delete
variable select delete
next n
jump SELF jump
variable select index $(random(1,atoms,364500):%.0f)
variable select index 277311
group select id ${select}
group select id 277311
1 atoms in group select
if "${inside} == 0" then     "group select delete"     "variable select delete"     "next n"     "jump SELF jump"
group select delete
variable select delete
next n
jump SELF jump
variable select index $(random(1,atoms,364500):%.0f)
variable select index 192326
group select id ${select}
group select id 192326
1 atoms in group select
if "${inside} == 0" then     "group select delete"     "variable select delete"     "next n"     "jump SELF jump"
group select delete
variable select delete
next n
jump SELF jump
variable select index $(random(1,atoms,364500):%.0f)
variable select index 354544
group select id ${select}
group select id 354544
1 atoms in group select
if "${inside} == 0" then     "group select delete"     "variable select delete"     "next n"     "jump SELF jump"
group select delete
variable select delete
next n
jump SELF jump
variable select index $(random(1,atoms,364500):%.0f)
variable select index 196152
group select id ${select}
group select id 196152
1 atoms in group select
if "${inside} == 0" then     "group select delete"     "variable select delete"     "next n"     "jump SELF jump"
group select delete
variable select delete
next n
jump SELF jump
variable select index $(random(1,atoms,364500):%.0f)
variable select index 107038
group select id ${select}
group select id 107038
1 atoms in group select
if "${inside} == 0" then     "group select delete"     "variable select delete"     "next n"     "jump SELF jump"
group select delete
variable select delete
next n
jump SELF jump
variable select index $(random(1,atoms,364500):%.0f)
variable select index 301559
group select id ${select}
group select id 301559
1 atoms in group select
if "${inside} == 0" then     "group select delete"     "variable select delete"     "next n"     "jump SELF jump"
group select delete
variable select delete
next n
jump SELF jump
variable select index $(random(1,atoms,364500):%.0f)
variable select index 239046
group select id ${select}
group select id 239046
1 atoms in group select
if "${inside} == 0" then     "group select delete"     "variable select delete"     "next n"     "jump SELF jump"
group select delete
variable select delete
next n
jump SELF jump
variable select index $(random(1,atoms,364500):%.0f)
variable select index 196791
group select id ${select}
group select id 196791
1 atoms in group select
if "${inside} == 0" then     "group select delete"     "variable select delete"     "next n"     "jump SELF jump"
group select delete
variable select delete
next n
jump SELF jump
variable select index $(random(1,atoms,364500):%.0f)
variable select index 98039
group select id ${select}
group select id 98039
1 atoms in group select
if "${inside} == 0" then     "group select delete"     "variable select delete"     "next n"     "jump SELF jump"
group select delete
variable select delete
next n
jump SELF jump
variable select index $(random(1,atoms,364500):%.0f)
variable select index 46037
group select id ${select}
group select id 46037
1 atoms in group select
if "${inside} == 0" then     "group select delete"     "variable select delete"     "next n"     "jump SELF jump"
group select delete
variable select delete
next n
jump SELF jump
variable select index $(random(1,atoms,364500):%.0f)
variable select index 280931
group select id ${select}
group select id 280931
1 atoms in group select
if "${inside} == 0" then     "group select delete"     "variable select delete"     "next n"     "jump SELF jump"
group select delete
variable select delete
next n
jump SELF jump
variable select index $(random(1,atoms,364500):%.0f)
variable select index 122278
group select id ${select}
group select id 122278
1 atoms in group select
if "${inside} == 0" then     "group select delete"     "variable select delete"     "next n"     "jump SELF jump"
group select delete
variable select delete
next n
jump SELF jump
variable select index $(random(1,atoms,364500):%.0f)
variable select index 251282
group select id ${select}
group select id 251282
1 atoms in group select
if "${inside} == 0" then     "group select delete"     "variable select delete"     "next n"     "jump SELF jump"
group select delete
variable select delete
next n
jump SELF jump
variable select index $(random(1,atoms,364500):%.0f)
variable select index 190405
group select id ${select}
group select id 190405
1 atoms in group select
if "${inside} == 0" then     "group select delete"     "variable select delete"     "next n"     "jump SELF jump"
group select delete
variable select delete
next n
jump SELF jump
variable select index $(random(1,atoms,364500):%.0f)
variable select index 139996
group select id ${select}
group select id 139996
1 atoms in group select
if "${inside} == 0" then     "group select delete"     "variable select delete"     "next n"     "jump SELF jump"
group select delete
variable select delete
next n
jump SELF jump
variable select index $(random(1,atoms,364500):%.0f)
variable select index 137051
group select id ${select}
group select id 137051
1 atoms in group select
if "${inside} == 0" then     "group select delete"     "variable select delete"     "next n"     "jump SELF jump"
group select delete
variable select delete
next n
jump SELF jump
variable select index $(random(1,atoms,364500):%.0f)
variable select index 220528
group select id ${select}
group select id 220528
1 atoms in group select
if "${inside} == 0" then     "group select delete"     "variable select delete"     "next n"     "jump SELF jump"
group select delete
variable select delete
next n
jump SELF jump
variable select index $(random(1,atoms,364500):%.0f)
variable select index 39777
group select id ${select}
group select id 39777
1 atoms in group select
if "${inside} == 0" then     "group select delete"     "variable select delete"     "next n"     "jump SELF jump"
group select delete
variable select delete
next n
jump SELF jump
variable select index $(random(1,atoms,364500):%.0f)
variable select index 200143
group select id ${select}
group select id 200143
1 atoms in group select
if "${inside} == 0" then     "group select delete"     "variable select delete"     "next n"     "jump SELF jump"
group select delete
variable select delete
next n
jump SELF jump
variable select index $(random(1,atoms,364500):%.0f)
variable select index 139841
group select id ${select}
group select id 139841
1 atoms in group select
if "${inside} == 0" then     "group select delete"     "variable select delete"     "next n"     "jump SELF jump"
group select delete
variable select delete
next n
jump SELF jump
variable select index $(random(1,atoms,364500):%.0f)
variable select index 22448
group select id ${select}
group select id 22448
1 atoms in group select
if "${inside} == 0" then     "group select delete"     "variable select delete"     "next n"     "jump SELF jump"
group select delete
variable select delete
next n
jump SELF jump
variable select index $(random(1,atoms,364500):%.0f)
variable select index 204592
group select id ${select}
group select id 204592
1 atoms in group select
if "${inside} == 0" then     "group select delete"     "variable select delete"     "next n"     "jump SELF jump"
group select delete
variable select delete
next n
jump SELF jump
variable select index $(random(1,atoms,364500):%.0f)
variable select index 109485
group select id ${select}
group select id 109485
1 atoms in group select
if "${inside} == 0" then     "group select delete"     "variable select delete"     "next n"     "jump SELF jump"
group select delete
variable select delete
next n
jump SELF jump
variable select index $(random(1,atoms,364500):%.0f)
variable select index 98450
group select id ${select}
group select id 98450
1 atoms in group select
if "${inside} == 0" then     "group select delete"     "variable select delete"     "next n"     "jump SELF jump"
group select delete
variable select delete
next n
jump SELF jump
variable select index $(random(1,atoms,364500):%.0f)
variable select index 114092
group select id ${select}
group select id 114092
1 atoms in group select
if "${inside} == 0" then     "group select delete"     "variable select delete"     "next n"     "jump SELF jump"
group select delete
variable select delete
next n
jump SELF jump
variable select index $(random(1,atoms,364500):%.0f)
variable select index 334052
group select id ${select}
group select id 334052
1 atoms in group select
if "${inside} == 0" then     "group select delete"     "variable select delete"     "next n"     "jump SELF jump"
group select delete
variable select delete
next n
jump SELF jump
variable select index $(random(1,atoms,364500):%.0f)
variable select index 184114
group select id ${select}
group select id 184114
1 atoms in group select
if "${inside} == 0" then     "group select delete"     "variable select delete"     "next n"     "jump SELF jump"
group select delete
variable select delete
next n
jump SELF jump
variable select index $(random(1,atoms,364500):%.0f)
variable select index 14806
group select id ${select}
group select id 14806
1 atoms in group select
if "${inside} == 0" then     "group select delete"     "variable select delete"     "next n"     "jump SELF jump"
group select delete
variable select delete
next n
jump SELF jump
variable select index $(random(1,atoms,364500):%.0f)
variable select index 8726
group select id ${select}
group select id 8726
1 atoms in group select
if "${inside} == 0" then     "group select delete"     "variable select delete"     "next n"     "jump SELF jump"
group select delete
variable select delete
next n
jump SELF jump
variable select index $(random(1,atoms,364500):%.0f)
variable select index 340185
group select id ${select}
group select id 340185
1 atoms in group select
if "${inside} == 0" then     "group select delete"     "variable select delete"     "next n"     "jump SELF jump"
group select delete
variable select delete
next n
jump SELF jump
variable select index $(random(1,atoms,364500):%.0f)
variable select index 76793
group select id ${select}
group select id 76793
1 atoms in group select
if "${inside} == 0" then     "group select delete"     "variable select delete"     "next n"     "jump SELF jump"
group select delete
variable select delete
next n
jump SELF jump
variable select index $(random(1,atoms,364500):%.0f)
variable select index 66608
group select id ${select}
group select id 66608
1 atoms in group select
if "${inside} == 0" then     "group select delete"     "variable select delete"     "next n"     "jump SELF jump"
group select delete
variable select delete
next n
jump SELF jump
variable select index $(random(1,atoms,364500):%.0f)
variable select index 20972
group select id ${select}
group select id 20972
1 atoms in group select
if "${inside} == 0" then     "group select delete"     "variable select delete"     "next n"     "jump SELF jump"
group select delete
variable select delete
next n
jump SELF jump
variable select index $(random(1,atoms,364500):%.0f)
variable select index 244687
group select id ${select}
group select id 244687
1 atoms in group select
if "${inside} == 0" then     "group select delete"     "variable select delete"     "next n"     "jump SELF jump"
group select delete
variable select delete
next n
jump SELF jump
variable select index $(random(1,atoms,364500):%.0f)
variable select index 356198
group select id ${select}
group select id 356198
1 atoms in group select
if "${inside} == 0" then     "group select delete"     "variable select delete"     "next n"     "jump SELF jump"
group select delete
variable select delete
next n
jump SELF jump
variable select index $(random(1,atoms,364500):%.0f)
variable select index 167189
group select id ${select}
group select id 167189
1 atoms in group select
if "${inside} == 0" then     "group select delete"     "variable select delete"     "next n"     "jump SELF jump"
group select delete
variable select delete
next n
jump SELF jump
variable select index $(random(1,atoms,364500):%.0f)
variable select index 349952
group select id ${select}
group select id 349952
1 atoms in group select
if "${inside} == 0" then     "group select delete"     "variable select delete"     "next n"     "jump SELF jump"
group select delete
variable select delete
next n
jump SELF jump
variable select index $(random(1,atoms,364500):%.0f)
variable select index 318419
group select id ${select}
group select id 318419
1 atoms in group select
if "${inside} == 0" then     "group select delete"     "variable select delete"     "next n"     "jump SELF jump"
group select delete
variable select delete
next n
jump SELF jump
variable select index $(random(1,atoms,364500):%.0f)
variable select index 224029
group select id ${select}
group select id 224029
1 atoms in group select
if "${inside} == 0" then     "group select delete"     "variable select delete"     "next n"     "jump SELF jump"
group select delete
variable select delete
next n
jump SELF jump
variable select index $(random(1,atoms,364500):%.0f)
variable select index 214595
group select id ${select}
group select id 214595
1 atoms in group select
if "${inside} == 0" then     "group select delete"     "variable select delete"     "next n"     "jump SELF jump"
group select delete
variable select delete
next n
jump SELF jump
variable select index $(random(1,atoms,364500):%.0f)
variable select index 17925
group select id ${select}
group select id 17925
1 atoms in group select
if "${inside} == 0" then     "group select delete"     "variable select delete"     "next n"     "jump SELF jump"
group select delete
variable select delete
next n
jump SELF jump
variable select index $(random(1,atoms,364500):%.0f)
variable select index 106171
group select id ${select}
group select id 106171
1 atoms in group select
if "${inside} == 0" then     "group select delete"     "variable select delete"     "next n"     "jump SELF jump"
group select delete
variable select delete
next n
jump SELF jump
variable select index $(random(1,atoms,364500):%.0f)
variable select index 24786
group select id ${select}
group select id 24786
1 atoms in group select
if "${inside} == 0" then     "group select delete"     "variable select delete"     "next n"     "jump SELF jump"
group select delete
variable select delete
next n
jump SELF jump
variable select index $(random(1,atoms,364500):%.0f)
variable select index 126804
group select id ${select}
group select id 126804
1 atoms in group select
if "${inside} == 0" then     "group select delete"     "variable select delete"     "next n"     "jump SELF jump"
group select delete
variable select delete
next n
jump SELF jump
variable select index $(random(1,atoms,364500):%.0f)
variable select index 346543
group select id ${select}
group select id 346543
1 atoms in group select
if "${inside} == 0" then     "group select delete"     "variable select delete"     "next n"     "jump SELF jump"
group select delete
variable select delete
next n
jump SELF jump
variable select index $(random(1,atoms,364500):%.0f)
variable select index 352807
group select id ${select}
group select id 352807
1 atoms in group select
if "${inside} == 0" then     "group select delete"     "variable select delete"     "next n"     "jump SELF jump"
group select delete
variable select delete
next n
jump SELF jump
variable select index $(random(1,atoms,364500):%.0f)
variable select index 60672
group select id ${select}
group select id 60672
1 atoms in group select
if "${inside} == 0" then     "group select delete"     "variable select delete"     "next n"     "jump SELF jump"
group select delete
variable select delete
next n
jump SELF jump
variable select index $(random(1,atoms,364500):%.0f)
variable select index 346740
group select id ${select}
group select id 346740
1 atoms in group select
if "${inside} == 0" then     "group select delete"     "variable select delete"     "next n"     "jump SELF jump"
group select delete
variable select delete
next n
jump SELF jump
variable select index $(random(1,atoms,364500):%.0f)
variable select index 303166
group select id ${select}
group select id 303166
1 atoms in group select
if "${inside} == 0" then     "group select delete"     "variable select delete"     "next n"     "jump SELF jump"
group select delete
variable select delete
next n
jump SELF jump
variable select index $(random(1,atoms,364500):%.0f)
variable select index 9020
group select id ${select}
group select id 9020
1 atoms in group select
if "${inside} == 0" then     "group select delete"     "variable select delete"     "next n"     "jump SELF jump"
group select delete
variable select delete
next n
jump SELF jump
variable select index $(random(1,atoms,364500):%.0f)
variable select index 270250
group select id ${select}
group select id 270250
1 atoms in group select
if "${inside} == 0" then     "group select delete"     "variable select delete"     "next n"     "jump SELF jump"
group select delete
variable select delete
next n
jump SELF jump
variable select index $(random(1,atoms,364500):%.0f)
variable select index 211694
group select id ${select}
group select id 211694
1 atoms in group select
if "${inside} == 0" then     "group select delete"     "variable select delete"     "next n"     "jump SELF jump"
group select delete
variable select delete
next n
jump SELF jump
variable select index $(random(1,atoms,364500):%.0f)
variable select index 121124
group select id ${select}
group select id 121124
1 atoms in group select
if "${inside} == 0" then     "group select delete"     "variable select delete"     "next n"     "jump SELF jump"
group select delete
variable select delete
next n
jump SELF jump
variable select index $(random(1,atoms,364500):%.0f)
variable select index 10323
group select id ${select}
group select id 10323
1 atoms in group select
if "${inside} == 0" then     "group select delete"     "variable select delete"     "next n"     "jump SELF jump"
group select delete
variable select delete
next n
jump SELF jump
variable select index $(random(1,atoms,364500):%.0f)
variable select index 163586
group select id ${select}
group select id 163586
1 atoms in group select
if "${inside} == 0" then     "group select delete"     "variable select delete"     "next n"     "jump SELF jump"
group select delete
variable select delete
next n
jump SELF jump
variable select index $(random(1,atoms,364500):%.0f)
variable select index 1792
group select id ${select}
group select id 1792
1 atoms in group select
if "${inside} == 0" then     "group select delete"     "variable select delete"     "next n"     "jump SELF jump"
group select delete
variable select delete
next n
jump SELF jump
variable select index $(random(1,atoms,364500):%.0f)
variable select index 221899
group select id ${select}
group select id 221899
1 atoms in group select
if "${inside} == 0" then     "group select delete"     "variable select delete"     "next n"     "jump SELF jump"
group select delete
variable select delete
next n
jump SELF jump
variable select index $(random(1,atoms,364500):%.0f)
variable select index 332804
group select id ${select}
group select id 332804
1 atoms in group select
if "${inside} == 0" then     "group select delete"     "variable select delete"     "next n"     "jump SELF jump"
group select delete
variable select delete
next n
jump SELF jump
variable select index $(random(1,atoms,364500):%.0f)
variable select index 241990
group select id ${select}
group select id 241990
1 atoms in group select
if "${inside} == 0" then     "group select delete"     "variable select delete"     "next n"     "jump SELF jump"
group select delete
variable select delete
next n
jump SELF jump
variable select index $(random(1,atoms,364500):%.0f)
variable select index 91264
group select id ${select}
group select id 91264
1 atoms in group select
if "${inside} == 0" then     "group select delete"     "variable select delete"     "next n"     "jump SELF jump"
group select delete
variable select delete
next n
jump SELF jump
variable select index $(random(1,atoms,364500):%.0f)
variable select index 252682
group select id ${select}
group select id 252682
1 atoms in group select
if "${inside} == 0" then     "group select delete"     "variable select delete"     "next n"     "jump SELF jump"
group select delete
variable select delete
next n
jump SELF jump
variable select index $(random(1,atoms,364500):%.0f)
variable select index 309076
group select id ${select}
group select id 309076
1 atoms in group select
if "${inside} == 0" then     "group select delete"     "variable select delete"     "next n"     "jump SELF jump"
group select delete
variable select delete
next n
jump SELF jump
variable select index $(random(1,atoms,364500):%.0f)
variable select index 17288
group select id ${select}
group select id 17288
1 atoms in group select
if "${inside} == 0" then     "group select delete"     "variable select delete"     "next n"     "jump SELF jump"
group select delete
variable select delete
next n
jump SELF jump
variable select index $(random(1,atoms,364500):%.0f)
variable select index 348896
group select id ${select}
group select id 348896
1 atoms in group select
if "${inside} == 0" then     "group select delete"     "variable select delete"     "next n"     "jump SELF jump"
group select delete
variable select delete
next n
jump SELF jump
variable select index $(random(1,atoms,364500):%.0f)
variable select index 24504
group select id ${select}
group select id 24504
1 atoms in group select
if "${inside} == 0" then     "group select delete"     "variable select delete"     "next n"     "jump SELF jump"
group select delete
variable select delete
next n
jump SELF jump
variable select index $(random(1,atoms,364500):%.0f)
variable select index 10118
group select id ${select}
group select id 10118
1 atoms in group select
if "${inside} == 0" then     "group select delete"     "variable select delete"     "next n"     "jump SELF jump"
group select delete
variable select delete
next n
jump SELF jump
variable select index $(random(1,atoms,364500):%.0f)
variable select index 358564
group select id ${select}
group select id 358564
1 atoms in group select
if "${inside} == 0" then     "group select delete"     "variable select delete"     "next n"     "jump SELF jump"
group select delete
variable select delete
next n
jump SELF jump
variable select index $(random(1,atoms,364500):%.0f)
variable select index 296167
group select id ${select}
group select id 296167
1 atoms in group select
if "${inside} == 0" then     "group select delete"     "variable select delete"     "next n"     "jump SELF jump"
group select delete
variable select delete
next n
jump SELF jump
variable select index $(random(1,atoms,364500):%.0f)
variable select index 61766
group select id ${select}
group select id 61766
1 atoms in group select
if "${inside} == 0" then     "group select delete"     "variable select delete"     "next n"     "jump SELF jump"
group select delete
variable select delete
next n
jump SELF jump
variable select index $(random(1,atoms,364500):%.0f)
variable select index 287586
group select id ${select}
group select id 287586
1 atoms in group select
if "${inside} == 0" then     "group select delete"     "variable select delete"     "next n"     "jump SELF jump"
group select delete
variable select delete
next n
jump SELF jump
variable select index $(random(1,atoms,364500):%.0f)
variable select index 85730
group select id ${select}
group select id 85730
1 atoms in group select
if "${inside} == 0" then     "group select delete"     "variable select delete"     "next n"     "jump SELF jump"
group select delete
variable select delete
next n
jump SELF jump
variable select index $(random(1,atoms,364500):%.0f)
variable select index 53870
group select id ${select}
group select id 53870
1 atoms in group select
if "${inside} == 0" then     "group select delete"     "variable select delete"     "next n"     "jump SELF jump"
group select delete
variable select delete
next n
jump SELF jump
variable select index $(random(1,atoms,364500):%.0f)
variable select index 51836
group select id ${select}
group select id 51836
1 atoms in group select
if "${inside} == 0" then     "group select delete"     "variable select delete"     "next n"     "jump SELF jump"
group select delete
variable select delete
next n
jump SELF jump
variable select index $(random(1,atoms,364500):%.0f)
variable select index 159359
group select id ${select}
group select id 159359
1 atoms in group select
if "${inside} == 0" then     "group select delete"     "variable select delete"     "next n"     "jump SELF jump"
group select delete
variable select delete
next n
jump SELF jump
variable select index $(random(1,atoms,364500):%.0f)
variable select index 185816
group select id ${select}
group select id 185816
1 atoms in group select
if "${inside} == 0" then     "group select delete"     "variable select delete"     "next n"     "jump SELF jump"
group select delete
variable select delete
next n
jump SELF jump
variable select index $(random(1,atoms,364500):%.0f)
variable select index 357145
group select id ${select}
group select id 357145
1 atoms in group select
if "${inside} == 0" then     "group select delete"     "variable select delete"     "next n"     "jump SELF jump"
group select delete
variable select delete
next n
jump SELF jump
variable select index $(random(1,atoms,364500):%.0f)
variable select index 326587
group select id ${select}
group select id 326587
1 atoms in group select
if "${inside} == 0" then     "group select delete"     "variable select delete"     "next n"     "jump SELF jump"
group select delete
variable select delete
next n
jump SELF jump
variable select index $(random(1,atoms,364500):%.0f)
variable select index 241611
group select id ${select}
group select id 241611
1 atoms in group select
if "${inside} == 0" then     "group select delete"     "variable select delete"     "next n"     "jump SELF jump"
group select delete
variable select delete
next n
jump SELF jump
variable select index $(random(1,atoms,364500):%.0f)
variable select index 34358
group select id ${select}
group select id 34358
1 atoms in group select
if "${inside} == 0" then     "group select delete"     "variable select delete"     "next n"     "jump SELF jump"
group select delete
variable select delete
next n
jump SELF jump
variable select index $(random(1,atoms,364500):%.0f)
variable select index 191638
group select id ${select}
group select id 191638
1 atoms in group select
if "${inside} == 0" then     "group select delete"     "variable select delete"     "next n"     "jump SELF jump"
group select delete
variable select delete
next n
jump SELF jump
variable select index $(random(1,atoms,364500):%.0f)
variable select index 147393
group select id ${select}
group select id 147393
1 atoms in group select
if "${inside} == 0" then     "group select delete"     "variable select delete"     "next n"     "jump SELF jump"
group select delete
variable select delete
next n
jump SELF jump
variable select index $(random(1,atoms,364500):%.0f)
variable select index 341822
group select id ${select}
group select id 341822
1 atoms in group select
if "${inside} == 0" then     "group select delete"     "variable select delete"     "next n"     "jump SELF jump"
group select delete
variable select delete
next n
jump SELF jump
variable select index $(random(1,atoms,364500):%.0f)
variable select index 51059
group select id ${select}
group select id 51059
1 atoms in group select
if "${inside} == 0" then     "group select delete"     "variable select delete"     "next n"     "jump SELF jump"
group select delete
variable select delete
next n
jump SELF jump
variable select index $(random(1,atoms,364500):%.0f)
variable select index 152143
group select id ${select}
group select id 152143
1 atoms in group select
if "${inside} == 0" then     "group select delete"     "variable select delete"     "next n"     "jump SELF jump"
group select delete
variable select delete
next n
jump SELF jump
variable select index $(random(1,atoms,364500):%.0f)
variable select index 281418
group select id ${select}
group select id 281418
1 atoms in group select
if "${inside} == 0" then     "group select delete"     "variable select delete"     "next n"     "jump SELF jump"
group select delete
variable select delete
next n
jump SELF jump
variable select index $(random(1,atoms,364500):%.0f)
variable select index 104597
group select id ${select}
group select id 104597
1 atoms in group select
if "${inside} == 0" then     "group select delete"     "variable select delete"     "next n"     "jump SELF jump"
group select delete
variable select delete
next n
jump SELF jump
variable select index $(random(1,atoms,364500):%.0f)
variable select index 287688
group select id ${select}
group select id 287688
1 atoms in group select
if "${inside} == 0" then     "group select delete"     "variable select delete"     "next n"     "jump SELF jump"
group select delete
variable select delete
next n
jump SELF jump
variable select index $(random(1,atoms,364500):%.0f)
variable select index 161689
group select id ${select}
group select id 161689
1 atoms in group select
if "${inside} == 0" then     "group select delete"     "variable select delete"     "next n"     "jump SELF jump"
group select delete
variable select delete
next n
jump SELF jump
variable select index $(random(1,atoms,364500):%.0f)
variable select index 115602
group select id ${select}
group select id 115602
1 atoms in group select
if "${inside} == 0" then     "group select delete"     "variable select delete"     "next n"     "jump SELF jump"
group select delete
variable select delete
next n
jump SELF jump
variable select index $(random(1,atoms,364500):%.0f)
variable select index 345247
group select id ${select}
group select id 345247
1 atoms in group select
if "${inside} == 0" then     "group select delete"     "variable select delete"     "next n"     "jump SELF jump"
group select delete
variable select delete
next n
jump SELF jump
variable select index $(random(1,atoms,364500):%.0f)
variable select index 13570
group select id ${select}
group select id 13570
1 atoms in group select
if "${inside} == 0" then     "group select delete"     "variable select delete"     "next n"     "jump SELF jump"
group select delete
variable select delete
next n
jump SELF jump
variable select index $(random(1,atoms,364500):%.0f)
variable select index 57514
group select id ${select}
group select id 57514
1 atoms in group select
if "${inside} == 0" then     "group select delete"     "variable select delete"     "next n"     "jump SELF jump"
group select delete
variable select delete
next n
jump SELF jump
variable select index $(random(1,atoms,364500):%.0f)
variable select index 124415
group select id ${select}
group select id 124415
1 atoms in group select
if "${inside} == 0" then     "group select delete"     "variable select delete"     "next n"     "jump SELF jump"
group select delete
variable select delete
next n
jump SELF jump
variable select index $(random(1,atoms,364500):%.0f)
variable select index 357663
group select id ${select}
group select id 357663
1 atoms in group select
if "${inside} == 0" then     "group select delete"     "variable select delete"     "next n"     "jump SELF jump"
group select delete
variable select delete
next n
jump SELF jump
variable select index $(random(1,atoms,364500):%.0f)
variable select index 32746
group select id ${select}
group select id 32746
1 atoms in group select
if "${inside} == 0" then     "group select delete"     "variable select delete"     "next n"     "jump SELF jump"
group select delete
variable select delete
next n
jump SELF jump
variable select index $(random(1,atoms,364500):%.0f)
variable select index 209741
group select id ${select}
group select id 209741
1 atoms in group select
if "${inside} == 0" then     "group select delete"     "variable select delete"     "next n"     "jump SELF jump"
group select delete
variable select delete
next n
jump SELF jump
variable select index $(random(1,atoms,364500):%.0f)
variable select index 89742
group select id ${select}
group select id 89742
1 atoms in group select
if "${inside} == 0" then     "group select delete"     "variable select delete"     "next n"     "jump SELF jump"
group select delete
variable select delete
next n
jump SELF jump
variable select index $(random(1,atoms,364500):%.0f)
variable select index 155001
group select id ${select}
group select id 155001
1 atoms in group select
if "${inside} == 0" then     "group select delete"     "variable select delete"     "next n"     "jump SELF jump"
group select delete
variable select delete
next n
jump SELF jump
variable select index $(random(1,atoms,364500):%.0f)
variable select index 250699
group select id ${select}
group select id 250699
1 atoms in group select
if "${inside} == 0" then     "group select delete"     "variable select delete"     "next n"     "jump SELF jump"
group select delete
variable select delete
next n
jump SELF jump
variable select index $(random(1,atoms,364500):%.0f)
variable select index 230767
group select id ${select}
group select id 230767
1 atoms in group select
if "${inside} == 0" then     "group select delete"     "variable select delete"     "next n"     "jump SELF jump"
group select delete
variable select delete
next n
jump SELF jump
variable select index $(random(1,atoms,364500):%.0f)
variable select index 301069
group select id ${select}
group select id 301069
1 atoms in group select
if "${inside} == 0" then     "group select delete"     "variable select delete"     "next n"     "jump SELF jump"
group select delete
variable select delete
next n
jump SELF jump
variable select index $(random(1,atoms,364500):%.0f)
variable select index 248153
group select id ${select}
group select id 248153
1 atoms in group select
if "${inside} == 0" then     "group select delete"     "variable select delete"     "next n"     "jump SELF jump"
group select delete
variable select delete
next n
jump SELF jump
variable select index $(random(1,atoms,364500):%.0f)
variable select index 18651
group select id ${select}
group select id 18651
1 atoms in group select
if "${inside} == 0" then     "group select delete"     "variable select delete"     "next n"     "jump SELF jump"
group select delete
variable select delete
next n
jump SELF jump
variable select index $(random(1,atoms,364500):%.0f)
variable select index 324291
group select id ${select}
group select id 324291
1 atoms in group select
if "${inside} == 0" then     "group select delete"     "variable select delete"     "next n"     "jump SELF jump"
group select delete
variable select delete
next n
jump SELF jump
variable select index $(random(1,atoms,364500):%.0f)
variable select index 115694
group select id ${select}
group select id 115694
1 atoms in group select
if "${inside} == 0" then     "group select delete"     "variable select delete"     "next n"     "jump SELF jump"
group select delete
variable select delete
next n
jump SELF jump
variable select index $(random(1,atoms,364500):%.0f)
variable select index 185272
group select id ${select}
group select id 185272
1 atoms in group select
if "${inside} == 0" then     "group select delete"     "variable select delete"     "next n"     "jump SELF jump"
group select delete
variable select delete
next n
jump SELF jump
variable select index $(random(1,atoms,364500):%.0f)
variable select index 192043
group select id ${select}
group select id 192043
1 atoms in group select
if "${inside} == 0" then     "group select delete"     "variable select delete"     "next n"     "jump SELF jump"
group select delete
variable select delete
next n
jump SELF jump
variable select index $(random(1,atoms,364500):%.0f)
variable select index 202279
group select id ${select}
group select id 202279
1 atoms in group select
if "${inside} == 0" then     "group select delete"     "variable select delete"     "next n"     "jump SELF jump"
group select delete
variable select delete
next n
jump SELF jump
variable select index $(random(1,atoms,364500):%.0f)
variable select index 38593
group select id ${select}
group select id 38593
1 atoms in group select
if "${inside} == 0" then     "group select delete"     "variable select delete"     "next n"     "jump SELF jump"
group select delete
variable select delete
next n
jump SELF jump
variable select index $(random(1,atoms,364500):%.0f)
variable select index 364452
group select id ${select}
group select id 364452
1 atoms in group select
if "${inside} == 0" then     "group select delete"     "variable select delete"     "next n"     "jump SELF jump"
group select delete
variable select delete
next n
jump SELF jump
variable select index $(random(1,atoms,364500):%.0f)
variable select index 190348
group select id ${select}
group select id 190348
1 atoms in group select
if "${inside} == 0" then     "group select delete"     "variable select delete"     "next n"     "jump SELF jump"
group select delete
variable select delete
next n
jump SELF jump
variable select index $(random(1,atoms,364500):%.0f)
variable select index 148990
group select id ${select}
group select id 148990
1 atoms in group select
if "${inside} == 0" then     "group select delete"     "variable select delete"     "next n"     "jump SELF jump"
group select delete
variable select delete
next n
jump SELF jump
variable select index $(random(1,atoms,364500):%.0f)
variable select index 155061
group select id ${select}
group select id 155061
1 atoms in group select
if "${inside} == 0" then     "group select delete"     "variable select delete"     "next n"     "jump SELF jump"
group select delete
variable select delete
next n
jump SELF jump
variable select index $(random(1,atoms,364500):%.0f)
variable select index 84580
group select id ${select}
group select id 84580
1 atoms in group select
if "${inside} == 0" then     "group select delete"     "variable select delete"     "next n"     "jump SELF jump"
group select delete
variable select delete
next n
jump SELF jump
variable select index $(random(1,atoms,364500):%.0f)
variable select index 240196
group select id ${select}
group select id 240196
1 atoms in group select
if "${inside} == 0" then     "group select delete"     "variable select delete"     "next n"     "jump SELF jump"
group select delete
variable select delete
next n
jump SELF jump
variable select index $(random(1,atoms,364500):%.0f)
variable select index 128624
group select id ${select}
group select id 128624
1 atoms in group select
if "${inside} == 0" then     "group select delete"     "variable select delete"     "next n"     "jump SELF jump"
group select delete
variable select delete
next n
jump SELF jump
variable select index $(random(1,atoms,364500):%.0f)
variable select index 133535
group select id ${select}
group select id 133535
1 atoms in group select
if "${inside} == 0" then     "group select delete"     "variable select delete"     "next n"     "jump SELF jump"
group select delete
variable select delete
next n
jump SELF jump
variable select index $(random(1,atoms,364500):%.0f)
variable select index 53163
group select id ${select}
group select id 53163
1 atoms in group select
if "${inside} == 0" then     "group select delete"     "variable select delete"     "next n"     "jump SELF jump"
group select delete
variable select delete
next n
jump SELF jump
variable select index $(random(1,atoms,364500):%.0f)
variable select index 213926
group select id ${select}
group select id 213926
1 atoms in group select
if "${inside} == 0" then     "group select delete"     "variable select delete"     "next n"     "jump SELF jump"
group select delete
variable select delete
next n
jump SELF jump
variable select index $(random(1,atoms,364500):%.0f)
variable select index 102024
group select id ${select}
group select id 102024
1 atoms in group select
if "${inside} == 0" then     "group select delete"     "variable select delete"     "next n"     "jump SELF jump"
group select delete
variable select delete
next n
jump SELF jump
variable select index $(random(1,atoms,364500):%.0f)
variable select index 18786
group select id ${select}
group select id 18786
1 atoms in group select
if "${inside} == 0" then     "group select delete"     "variable select delete"     "next n"     "jump SELF jump"
group select delete
variable select delete
next n
jump SELF jump
variable select index $(random(1,atoms,364500):%.0f)
variable select index 246811
group select id ${select}
group select id 246811
1 atoms in group select
if "${inside} == 0" then     "group select delete"     "variable select delete"     "next n"     "jump SELF jump"
group select delete
variable select delete
next n
jump SELF jump
variable select index $(random(1,atoms,364500):%.0f)
variable select index 38923
group select id ${select}
group select id 38923
1 atoms in group select
if "${inside} == 0" then     "group select delete"     "variable select delete"     "next n"     "jump SELF jump"
group select delete
variable select delete
next n
jump SELF jump
variable select index $(random(1,atoms,364500):%.0f)
variable select index 22460
group select id ${select}
group select id 22460
1 atoms in group select
if "${inside} == 0" then     "group select delete"     "variable select delete"     "next n"     "jump SELF jump"
group select delete
variable select delete
next n
jump SELF jump
variable select index $(random(1,atoms,364500):%.0f)
variable select index 340003
group select id ${select}
group select id 340003
1 atoms in group select
if "${inside} == 0" then     "group select delete"     "variable select delete"     "next n"     "jump SELF jump"
group select delete
variable select delete
next n
jump SELF jump
variable select index $(random(1,atoms,364500):%.0f)
variable select index 68820
group select id ${select}
group select id 68820
1 atoms in group select
if "${inside} == 0" then     "group select delete"     "variable select delete"     "next n"     "jump SELF jump"
group select delete
variable select delete
next n
jump SELF jump
variable select index $(random(1,atoms,364500):%.0f)
variable select index 333327
group select id ${select}
group select id 333327
1 atoms in group select
if "${inside} == 0" then     "group select delete"     "variable select delete"     "next n"     "jump SELF jump"
group select delete
variable select delete
next n
jump SELF jump
variable select index $(random(1,atoms,364500):%.0f)
variable select index 196651
group select id ${select}
group select id 196651
1 atoms in group select
if "${inside} == 0" then     "group select delete"     "variable select delete"     "next n"     "jump SELF jump"
group select delete
variable select delete
next n
jump SELF jump
variable select index $(random(1,atoms,364500):%.0f)
variable select index 175767
group select id ${select}
group select id 175767
1 atoms in group select
if "${inside} == 0" then     "group select delete"     "variable select delete"     "next n"     "jump SELF jump"
group select delete
variable select delete
next n
jump SELF jump
variable select index $(random(1,atoms,364500):%.0f)
variable select index 51927
group select id ${select}
group select id 51927
1 atoms in group select
if "${inside} == 0" then     "group select delete"     "variable select delete"     "next n"     "jump SELF jump"
group select delete
variable select delete
next n
jump SELF jump
variable select index $(random(1,atoms,364500):%.0f)
variable select index 12180
group select id ${select}
group select id 12180
1 atoms in group select
if "${inside} == 0" then     "group select delete"     "variable select delete"     "next n"     "jump SELF jump"
group select delete
variable select delete
next n
jump SELF jump
variable select index $(random(1,atoms,364500):%.0f)
variable select index 194290
group select id ${select}
group select id 194290
1 atoms in group select
if "${inside} == 0" then     "group select delete"     "variable select delete"     "next n"     "jump SELF jump"
group select delete
variable select delete
next n
jump SELF jump
variable select index $(random(1,atoms,364500):%.0f)
variable select index 191509
group select id ${select}
group select id 191509
1 atoms in group select
if "${inside} == 0" then     "group select delete"     "variable select delete"     "next n"     "jump SELF jump"
group select delete
variable select delete
next n
jump SELF jump
variable select index $(random(1,atoms,364500):%.0f)
variable select index 105769
group select id ${select}
group select id 105769
1 atoms in group select
if "${inside} == 0" then     "group select delete"     "variable select delete"     "next n"     "jump SELF jump"
group select delete
variable select delete
next n
jump SELF jump
variable select index $(random(1,atoms,364500):%.0f)
variable select index 293447
group select id ${select}
group select id 293447
1 atoms in group select
if "${inside} == 0" then     "group select delete"     "variable select delete"     "next n"     "jump SELF jump"
group select delete
variable select delete
next n
jump SELF jump
variable select index $(random(1,atoms,364500):%.0f)
variable select index 230358
group select id ${select}
group select id 230358
1 atoms in group select
if "${inside} == 0" then     "group select delete"     "variable select delete"     "next n"     "jump SELF jump"
group select delete
variable select delete
next n
jump SELF jump
variable select index $(random(1,atoms,364500):%.0f)
variable select index 81580
group select id ${select}
group select id 81580
1 atoms in group select
if "${inside} == 0" then     "group select delete"     "variable select delete"     "next n"     "jump SELF jump"
group select delete
variable select delete
next n
jump SELF jump
variable select index $(random(1,atoms,364500):%.0f)
variable select index 259804
group select id ${select}
group select id 259804
1 atoms in group select
if "${inside} == 0" then     "group select delete"     "variable select delete"     "next n"     "jump SELF jump"
group select delete
variable select delete
next n
jump SELF jump
variable select index $(random(1,atoms,364500):%.0f)
variable select index 80268
group select id ${select}
group select id 80268
1 atoms in group select
if "${inside} == 0" then     "group select delete"     "variable select delete"     "next n"     "jump SELF jump"
group select delete
variable select delete
next n
jump SELF jump
variable select index $(random(1,atoms,364500):%.0f)
variable select index 158409
group select id ${select}
group select id 158409
1 atoms in group select
if "${inside} == 0" then     "group select delete"     "variable select delete"     "next n"     "jump SELF jump"
group select delete
variable select delete
next n
jump SELF jump
variable select index $(random(1,atoms,364500):%.0f)
variable select index 51989
group select id ${select}
group select id 51989
1 atoms in group select
if "${inside} == 0" then     "group select delete"     "variable select delete"     "next n"     "jump SELF jump"
group select delete
variable select delete
next n
jump SELF jump
variable select index $(random(1,atoms,364500):%.0f)
variable select index 237211
group select id ${select}
group select id 237211
1 atoms in group select
if "${inside} == 0" then     "group select delete"     "variable select delete"     "next n"     "jump SELF jump"
group select delete
variable select delete
next n
jump SELF jump
variable select index $(random(1,atoms,364500):%.0f)
variable select index 83914
group select id ${select}
group select id 83914
1 atoms in group select
if "${inside} == 0" then     "group select delete"     "variable select delete"     "next n"     "jump SELF jump"
group select delete
variable select delete
next n
jump SELF jump
variable select index $(random(1,atoms,364500):%.0f)
variable select index 132179
group select id ${select}
group select id 132179
1 atoms in group select
if "${inside} == 0" then     "group select delete"     "variable select delete"     "next n"     "jump SELF jump"
group select delete
variable select delete
next n
jump SELF jump
variable select index $(random(1,atoms,364500):%.0f)
variable select index 261402
group select id ${select}
group select id 261402
1 atoms in group select
if "${inside} == 0" then     "group select delete"     "variable select delete"     "next n"     "jump SELF jump"
group select delete
variable select delete
next n
jump SELF jump
variable select index $(random(1,atoms,364500):%.0f)
variable select index 13554
group select id ${select}
group select id 13554
1 atoms in group select
if "${inside} == 0" then     "group select delete"     "variable select delete"     "next n"     "jump SELF jump"
group select delete
variable select delete
next n
jump SELF jump
variable select index $(random(1,atoms,364500):%.0f)
variable select index 320685
group select id ${select}
group select id 320685
1 atoms in group select
if "${inside} == 0" then     "group select delete"     "variable select delete"     "next n"     "jump SELF jump"
group select delete
variable select delete
next n
jump SELF jump
variable select index $(random(1,atoms,364500):%.0f)
variable select index 228097
group select id ${select}
group select id 228097
1 atoms in group select
if "${inside} == 0" then     "group select delete"     "variable select delete"     "next n"     "jump SELF jump"
group select delete
variable select delete
next n
jump SELF jump
variable select index $(random(1,atoms,364500):%.0f)
variable select index 82910
group select id ${select}
group select id 82910
1 atoms in group select
if "${inside} == 0" then     "group select delete"     "variable select delete"     "next n"     "jump SELF jump"
group select delete
variable select delete
next n
jump SELF jump
variable select index $(random(1,atoms,364500):%.0f)
variable select index 153726
group select id ${select}
group select id 153726
1 atoms in group select
if "${inside} == 0" then     "group select delete"     "variable select delete"     "next n"     "jump SELF jump"
group select delete
variable select delete
next n
jump SELF jump
variable select index $(random(1,atoms,364500):%.0f)
variable select index 289593
group select id ${select}
group select id 289593
1 atoms in group select
if "${inside} == 0" then     "group select delete"     "variable select delete"     "next n"     "jump SELF jump"
group select delete
variable select delete
next n
jump SELF jump
variable select index $(random(1,atoms,364500):%.0f)
variable select index 83891
group select id ${select}
group select id 83891
1 atoms in group select
if "${inside} == 0" then     "group select delete"     "variable select delete"     "next n"     "jump SELF jump"
group select delete
variable select delete
next n
jump SELF jump
variable select index $(random(1,atoms,364500):%.0f)
variable select index 200295
group select id ${select}
group select id 200295
1 atoms in group select
if "${inside} == 0" then     "group select delete"     "variable select delete"     "next n"     "jump SELF jump"
group select delete
variable select delete
next n
jump SELF jump
variable select index $(random(1,atoms,364500):%.0f)
variable select index 305438
group select id ${select}
group select id 305438
1 atoms in group select
if "${inside} == 0" then     "group select delete"     "variable select delete"     "next n"     "jump SELF jump"
group select delete
variable select delete
next n
jump SELF jump
variable select index $(random(1,atoms,364500):%.0f)
variable select index 354614
group select id ${select}
group select id 354614
1 atoms in group select
if "${inside} == 0" then     "group select delete"     "variable select delete"     "next n"     "jump SELF jump"
group select delete
variable select delete
next n
jump SELF jump
variable select index $(random(1,atoms,364500):%.0f)
variable select index 273486
group select id ${select}
group select id 273486
1 atoms in group select
if "${inside} == 0" then     "group select delete"     "variable select delete"     "next n"     "jump SELF jump"
group select delete
variable select delete
next n
jump SELF jump
variable select index $(random(1,atoms,364500):%.0f)
variable select index 305520
group select id ${select}
group select id 305520
1 atoms in group select
if "${inside} == 0" then     "group select delete"     "variable select delete"     "next n"     "jump SELF jump"
group select delete
variable select delete
next n
jump SELF jump
variable select index $(random(1,atoms,364500):%.0f)
variable select index 315690
group select id ${select}
group select id 315690
1 atoms in group select
if "${inside} == 0" then     "group select delete"     "variable select delete"     "next n"     "jump SELF jump"
group select delete
variable select delete
next n
jump SELF jump
variable select index $(random(1,atoms,364500):%.0f)
variable select index 80567
group select id ${select}
group select id 80567
1 atoms in group select
if "${inside} == 0" then     "group select delete"     "variable select delete"     "next n"     "jump SELF jump"
group select delete
variable select delete
next n
jump SELF jump
variable select index $(random(1,atoms,364500):%.0f)
variable select index 55067
group select id ${select}
group select id 55067
1 atoms in group select
if "${inside} == 0" then     "group select delete"     "variable select delete"     "next n"     "jump SELF jump"
group select delete
variable select delete
next n
jump SELF jump
variable select index $(random(1,atoms,364500):%.0f)
variable select index 325149
group select id ${select}
group select id 325149
1 atoms in group select
if "${inside} == 0" then     "group select delete"     "variable select delete"     "next n"     "jump SELF jump"
group select delete
variable select delete
next n
jump SELF jump
variable select index $(random(1,atoms,364500):%.0f)
variable select index 187938
group select id ${select}
group select id 187938
1 atoms in group select
if "${inside} == 0" then     "group select delete"     "variable select delete"     "next n"     "jump SELF jump"
group select delete
variable select delete
next n
jump SELF jump
variable select index $(random(1,atoms,364500):%.0f)
variable select index 99188
group select id ${select}
group select id 99188
1 atoms in group select
if "${inside} == 0" then     "group select delete"     "variable select delete"     "next n"     "jump SELF jump"
group select delete
variable select delete
next n
jump SELF jump
variable select index $(random(1,atoms,364500):%.0f)
variable select index 289179
group select id ${select}
group select id 289179
1 atoms in group select
if "${inside} == 0" then     "group select delete"     "variable select delete"     "next n"     "jump SELF jump"
group select delete
variable select delete
next n
jump SELF jump
variable select index $(random(1,atoms,364500):%.0f)
variable select index 210969
group select id ${select}
group select id 210969
1 atoms in group select
if "${inside} == 0" then     "group select delete"     "variable select delete"     "next n"     "jump SELF jump"
group select delete
variable select delete
next n
jump SELF jump
variable select index $(random(1,atoms,364500):%.0f)
variable select index 145645
group select id ${select}
group select id 145645
1 atoms in group select
if "${inside} == 0" then     "group select delete"     "variable select delete"     "next n"     "jump SELF jump"
group select delete
variable select delete
next n
jump SELF jump
variable select index $(random(1,atoms,364500):%.0f)
variable select index 259004
group select id ${select}
group select id 259004
1 atoms in group select
if "${inside} == 0" then     "group select delete"     "variable select delete"     "next n"     "jump SELF jump"
group select delete
variable select delete
next n
jump SELF jump
variable select index $(random(1,atoms,364500):%.0f)
variable select index 35765
group select id ${select}
group select id 35765
1 atoms in group select
if "${inside} == 0" then     "group select delete"     "variable select delete"     "next n"     "jump SELF jump"
group select delete
variable select delete
next n
jump SELF jump
variable select index $(random(1,atoms,364500):%.0f)
variable select index 233291
group select id ${select}
group select id 233291
1 atoms in group select
if "${inside} == 0" then     "group select delete"     "variable select delete"     "next n"     "jump SELF jump"
group select delete
variable select delete
next n
jump SELF jump
variable select index $(random(1,atoms,364500):%.0f)
variable select index 181832
group select id ${select}
group select id 181832
1 atoms in group select
if "${inside} == 0" then     "group select delete"     "variable select delete"     "next n"     "jump SELF jump"
group select delete
variable select delete
next n
jump SELF jump
variable select index $(random(1,atoms,364500):%.0f)
variable select index 277428
group select id ${select}
group select id 277428
1 atoms in group select
if "${inside} == 0" then     "group select delete"     "variable select delete"     "next n"     "jump SELF jump"
group select delete
variable select delete
next n
jump SELF jump
variable select index $(random(1,atoms,364500):%.0f)
variable select index 285218
group select id ${select}
group select id 285218
1 atoms in group select
if "${inside} == 0" then     "group select delete"     "variable select delete"     "next n"     "jump SELF jump"
group select delete
variable select delete
next n
jump SELF jump
variable select index $(random(1,atoms,364500):%.0f)
variable select index 180204
group select id ${select}
group select id 180204
1 atoms in group select
if "${inside} == 0" then     "group select delete"     "variable select delete"     "next n"     "jump SELF jump"
group select delete
variable select delete
next n
jump SELF jump
variable select index $(random(1,atoms,364500):%.0f)
variable select index 57863
group select id ${select}
group select id 57863
1 atoms in group select
if "${inside} == 0" then     "group select delete"     "variable select delete"     "next n"     "jump SELF jump"
group select delete
variable select delete
next n
jump SELF jump
variable select index $(random(1,atoms,364500):%.0f)
variable select index 318461
group select id ${select}
group select id 318461
1 atoms in group select
if "${inside} == 0" then     "group select delete"     "variable select delete"     "next n"     "jump SELF jump"
group select delete
variable select delete
next n
jump SELF jump
variable select index $(random(1,atoms,364500):%.0f)
variable select index 66303
group select id ${select}
group select id 66303
1 atoms in group select
if "${inside} == 0" then     "group select delete"     "variable select delete"     "next n"     "jump SELF jump"
group select delete
variable select delete
next n
jump SELF jump
variable select index $(random(1,atoms,364500):%.0f)
variable select index 341615
group select id ${select}
group select id 341615
1 atoms in group select
if "${inside} == 0" then     "group select delete"     "variable select delete"     "next n"     "jump SELF jump"
group select delete
variable select delete
next n
jump SELF jump
variable select index $(random(1,atoms,364500):%.0f)
variable select index 334443
group select id ${select}
group select id 334443
1 atoms in group select
if "${inside} == 0" then     "group select delete"     "variable select delete"     "next n"     "jump SELF jump"
group select delete
variable select delete
next n
jump SELF jump
variable select index $(random(1,atoms,364500):%.0f)
variable select index 214018
group select id ${select}
group select id 214018
1 atoms in group select
if "${inside} == 0" then     "group select delete"     "variable select delete"     "next n"     "jump SELF jump"
group select delete
variable select delete
next n
jump SELF jump
variable select index $(random(1,atoms,364500):%.0f)
variable select index 146920
group select id ${select}
group select id 146920
1 atoms in group select
if "${inside} == 0" then     "group select delete"     "variable select delete"     "next n"     "jump SELF jump"
group select delete
variable select delete
next n
jump SELF jump
variable select index $(random(1,atoms,364500):%.0f)
variable select index 142389
group select id ${select}
group select id 142389
1 atoms in group select
if "${inside} == 0" then     "group select delete"     "variable select delete"     "next n"     "jump SELF jump"
group select delete
variable select delete
next n
jump SELF jump
variable select index $(random(1,atoms,364500):%.0f)
variable select index 218649
group select id ${select}
group select id 218649
1 atoms in group select
if "${inside} == 0" then     "group select delete"     "variable select delete"     "next n"     "jump SELF jump"
group select delete
variable select delete
next n
jump SELF jump
variable select index $(random(1,atoms,364500):%.0f)
variable select index 137308
group select id ${select}
group select id 137308
1 atoms in group select
if "${inside} == 0" then     "group select delete"     "variable select delete"     "next n"     "jump SELF jump"
group select delete
variable select delete
next n
jump SELF jump
variable select index $(random(1,atoms,364500):%.0f)
variable select index 350829
group select id ${select}
group select id 350829
1 atoms in group select
if "${inside} == 0" then     "group select delete"     "variable select delete"     "next n"     "jump SELF jump"
group select delete
variable select delete
next n
jump SELF jump
variable select index $(random(1,atoms,364500):%.0f)
variable select index 232329
group select id ${select}
group select id 232329
1 atoms in group select
if "${inside} == 0" then     "group select delete"     "variable select delete"     "next n"     "jump SELF jump"
group select delete
variable select delete
next n
jump SELF jump
variable select index $(random(1,atoms,364500):%.0f)
variable select index 236135
group select id ${select}
group select id 236135
1 atoms in group select
if "${inside} == 0" then     "group select delete"     "variable select delete"     "next n"     "jump SELF jump"
group select delete
variable select delete
next n
jump SELF jump
variable select index $(random(1,atoms,364500):%.0f)
variable select index 162434
group select id ${select}
group select id 162434
1 atoms in group select
if "${inside} == 0" then     "group select delete"     "variable select delete"     "next n"     "jump SELF jump"
group select delete
variable select delete
next n
jump SELF jump
variable select index $(random(1,atoms,364500):%.0f)
variable select index 312377
group select id ${select}
group select id 312377
1 atoms in group select
if "${inside} == 0" then     "group select delete"     "variable select delete"     "next n"     "jump SELF jump"
group select delete
variable select delete
next n
jump SELF jump
variable select index $(random(1,atoms,364500):%.0f)
variable select index 239246
group select id ${select}
group select id 239246
1 atoms in group select
if "${inside} == 0" then     "group select delete"     "variable select delete"     "next n"     "jump SELF jump"
group select delete
variable select delete
next n
jump SELF jump
variable select index $(random(1,atoms,364500):%.0f)
variable select index 75912
group select id ${select}
group select id 75912
1 atoms in group select
if "${inside} == 0" then     "group select delete"     "variable select delete"     "next n"     "jump SELF jump"
group select delete
variable select delete
next n
jump SELF jump
variable select index $(random(1,atoms,364500):%.0f)
variable select index 100786
group select id ${select}
group select id 100786
1 atoms in group select
if "${inside} == 0" then     "group select delete"     "variable select delete"     "next n"     "jump SELF jump"
group select delete
variable select delete
next n
jump SELF jump
variable select index $(random(1,atoms,364500):%.0f)
variable select index 177289
group select id ${select}
group select id 177289
1 atoms in group select
if "${inside} == 0" then     "group select delete"     "variable select delete"     "next n"     "jump SELF jump"
group select delete
variable select delete
next n
jump SELF jump
variable select index $(random(1,atoms,364500):%.0f)
variable select index 181581
group select id ${select}
group select id 181581
1 atoms in group select
if "${inside} == 0" then     "group select delete"     "variable select delete"     "next n"     "jump SELF jump"
group select delete
variable select delete
next n
jump SELF jump
variable select index $(random(1,atoms,364500):%.0f)
variable select index 322296
group select id ${select}
group select id 322296
1 atoms in group select
if "${inside} == 0" then     "group select delete"     "variable select delete"     "next n"     "jump SELF jump"
group select delete
variable select delete
next n
jump SELF jump
variable select index $(random(1,atoms,364500):%.0f)
variable select index 326564
group select id ${select}
group select id 326564
1 atoms in group select
if "${inside} == 0" then     "group select delete"     "variable select delete"     "next n"     "jump SELF jump"
group select delete
variable select delete
next n
jump SELF jump
variable select index $(random(1,atoms,364500):%.0f)
variable select index 312810
group select id ${select}
group select id 312810
1 atoms in group select
if "${inside} == 0" then     "group select delete"     "variable select delete"     "next n"     "jump SELF jump"
group select delete
variable select delete
next n
jump SELF jump
variable select index $(random(1,atoms,364500):%.0f)
variable select index 269183
group select id ${select}
group select id 269183
1 atoms in group select
if "${inside} == 0" then     "group select delete"     "variable select delete"     "next n"     "jump SELF jump"
group select delete
variable select delete
next n
jump SELF jump
variable select index $(random(1,atoms,364500):%.0f)
variable select index 219492
group select id ${select}
group select id 219492
1 atoms in group select
if "${inside} == 0" then     "group select delete"     "variable select delete"     "next n"     "jump SELF jump"
group select delete
variable select delete
next n
jump SELF jump
variable select index $(random(1,atoms,364500):%.0f)
variable select index 33698
group select id ${select}
group select id 33698
1 atoms in group select
if "${inside} == 0" then     "group select delete"     "variable select delete"     "next n"     "jump SELF jump"
group select delete
variable select delete
next n
jump SELF jump
variable select index $(random(1,atoms,364500):%.0f)
variable select index 221633
group select id ${select}
group select id 221633
1 atoms in group select
if "${inside} == 0" then     "group select delete"     "variable select delete"     "next n"     "jump SELF jump"
group select delete
variable select delete
next n
jump SELF jump
variable select index $(random(1,atoms,364500):%.0f)
variable select index 187810
group select id ${select}
group select id 187810
1 atoms in group select
if "${inside} == 0" then     "group select delete"     "variable select delete"     "next n"     "jump SELF jump"
group select delete
variable select delete
next n
jump SELF jump
variable select index $(random(1,atoms,364500):%.0f)
variable select index 312482
group select id ${select}
group select id 312482
1 atoms in group select
if "${inside} == 0" then     "group select delete"     "variable select delete"     "next n"     "jump SELF jump"
group select delete
variable select delete
next n
jump SELF jump
variable select index $(random(1,atoms,364500):%.0f)
variable select index 235317
group select id ${select}
group select id 235317
1 atoms in group select
if "${inside} == 0" then     "group select delete"     "variable select delete"     "next n"     "jump SELF jump"
group select delete
variable select delete
next n
jump SELF jump
variable select index $(random(1,atoms,364500):%.0f)
variable select index 312789
group select id ${select}
group select id 312789
1 atoms in group select
if "${inside} == 0" then     "group select delete"     "variable select delete"     "next n"     "jump SELF jump"
group select delete
variable select delete
next n
jump SELF jump
variable select index $(random(1,atoms,364500):%.0f)
variable select index 117032
group select id ${select}
group select id 117032
1 atoms in group select
if "${inside} == 0" then     "group select delete"     "variable select delete"     "next n"     "jump SELF jump"
group select delete
variable select delete
next n
jump SELF jump
variable select index $(random(1,atoms,364500):%.0f)
variable select index 224657
group select id ${select}
group select id 224657
1 atoms in group select
if "${inside} == 0" then     "group select delete"     "variable select delete"     "next n"     "jump SELF jump"
group select delete
variable select delete
next n
jump SELF jump
variable select index $(random(1,atoms,364500):%.0f)
variable select index 110155
group select id ${select}
group select id 110155
1 atoms in group select
if "${inside} == 0" then     "group select delete"     "variable select delete"     "next n"     "jump SELF jump"
group select delete
variable select delete
next n
jump SELF jump
variable select index $(random(1,atoms,364500):%.0f)
variable select index 206248
group select id ${select}
group select id 206248
1 atoms in group select
if "${inside} == 0" then     "group select delete"     "variable select delete"     "next n"     "jump SELF jump"
group select delete
variable select delete
next n
jump SELF jump
variable select index $(random(1,atoms,364500):%.0f)
variable select index 218847
group select id ${select}
group select id 218847
1 atoms in group select
if "${inside} == 0" then     "group select delete"     "variable select delete"     "next n"     "jump SELF jump"
group select delete
variable select delete
next n
jump SELF jump
variable select index $(random(1,atoms,364500):%.0f)
variable select index 115902
group select id ${select}
group select id 115902
1 atoms in group select
if "${inside} == 0" then     "group select delete"     "variable select delete"     "next n"     "jump SELF jump"
group select delete
variable select delete
next n
jump SELF jump
variable select index $(random(1,atoms,364500):%.0f)
variable select index 218890
group select id ${select}
group select id 218890
1 atoms in group select
if "${inside} == 0" then     "group select delete"     "variable select delete"     "next n"     "jump SELF jump"
group select delete
variable select delete
next n
jump SELF jump
variable select index $(random(1,atoms,364500):%.0f)
variable select index 296729
group select id ${select}
group select id 296729
1 atoms in group select
if "${inside} == 0" then     "group select delete"     "variable select delete"     "next n"     "jump SELF jump"
group select delete
variable select delete
next n
jump SELF jump
variable select index $(random(1,atoms,364500):%.0f)
variable select index 54051
group select id ${select}
group select id 54051
1 atoms in group select
if "${inside} == 0" then     "group select delete"     "variable select delete"     "next n"     "jump SELF jump"
group select delete
variable select delete
next n
jump SELF jump
variable select index $(random(1,atoms,364500):%.0f)
variable select index 229789
group select id ${select}
group select id 229789
1 atoms in group select
if "${inside} == 0" then     "group select delete"     "variable select delete"     "next n"     "jump SELF jump"
group select delete
variable select delete
next n
jump SELF jump
variable select index $(random(1,atoms,364500):%.0f)
variable select index 239454
group select id ${select}
group select id 239454
1 atoms in group select
[...]
Neighs:    5.84529e+06 ave 5.87667e+06 max 5.80859e+06 min
Histogram: 1 0 1 0 0 0 0 0 0 2

Total # of neighbors = 23381171
Ave neighs/atom = 64.145874
Neighbor list builds = 32
Dangerous builds = 0
if '$(time)>25' then 'write_data NiCoCrFe_pka_5keV_final.lmp' 'quit' 
No /omp style for force computation currently active
Per MPI rank memory allocation (min/avg/max) = 80.34 | 80.38 | 80.4 Mbytes
     Time         Step          Temp          Press          TotEng    
 11.352074          32000   363.77544     -26442.806     -1554649.1    
 11.507204          32100   364.25714     -26493.199     -1554649.2    
 11.666168          32200   364.02218     -26443.982     -1554649.2    
 11.823347          32300   363.62124     -26424.035     -1554649.1    
 11.978256          32400   363.2049      -26394.89      -1554649.1    
 12.134317          32500   363.79226     -26439.521     -1554649.1    
 12.291999          32600   363.19794     -26332.971     -1554649.1    
 12.445262          32700   363.95567     -26509.994     -1554649.2    
 12.602121          32800   363.44363     -26417.849     -1554649.1    
 12.756792          32900   364.00287     -26490.014     -1554649.1    
 12.913019          33000   363.54552     -26416.956     -1554649.1    
Loop time of 518.293 on 16 procs for 1000 steps with 364500 atoms

Performance: 0.262 ns/day, 91.618 hours/ns, 1.929 timesteps/s, 703.270 katom-step/s
91.8% CPU use with 4 MPI tasks x 4 OpenMP threads

MPI task timing breakdown:
Section |  min time  |  avg time  |  max time  |%varavg| %total
---------------------------------------------------------------
Pair    | 472.54     | 474.62     | 476.71     |   7.4 | 91.57
Neigh   | 3.9041     | 3.9578     | 4.0273     |   2.4 |  0.76
Comm    | 25.827     | 27.916     | 30.001     |  30.3 |  5.39
Output  | 0.31351    | 0.33846    | 0.35993    |   3.0 |  0.07
Modify  | 9.6584     | 9.6852     | 9.7152     |   0.7 |  1.87
Other   |            | 1.776      |            |       |  0.34

Nlocal:          91125 ave       91670 max       90691 min
Histogram: 2 0 0 0 0 0 0 1 0 1
Nghost:        40019.2 ave       40454 max       39476 min
Histogram: 1 0 1 0 0 0 0 0 0 2
Neighs:    5.84537e+06 ave 5.87929e+06 max 5.81982e+06 min
Histogram: 2 0 0 0 0 0 1 0 0 1

Total # of neighbors = 23381478
Ave neighs/atom = 64.146716
Neighbor list builds = 33
Dangerous builds = 0
if '$(time)>25' then 'write_data NiCoCrFe_pka_5keV_final.lmp' 'quit' 
No /omp style for force computation currently active
Per MPI rank memory allocation (min/avg/max) = 80.34 | 80.38 | 80.4 Mbytes
     Time         Step          Temp          Press          TotEng    
 12.913019          33000   363.54552     -26416.956     -1554649.1    
 13.073712          33100   363.64429     -26445.221     -1554649.1    
 13.228382          33200   363.96352     -26431.727     -1554649.1    
 13.385611          33300   363.56659     -26373.348     -1554649.1    
 13.540182          33400   363.51469     -26446.679     -1554649.1    
 13.698713          33500   364.05793     -26494.789     -1554649.1    
 13.85751           33600   363.35202     -26402.568     -1554649.1    
 14.014503          33700   363.62228     -26411.069     -1554649.1    
 14.166306          33800   364.05918     -26406.999     -1554649.1    
 14.322872          33900   364.06592     -26468.02      -1554649.1    
 14.478594          34000   363.72071     -26411.537     -1554649      
Loop time of 394.785 on 16 procs for 1000 steps with 364500 atoms

Performance: 0.344 ns/day, 69.801 hours/ns, 2.533 timesteps/s, 923.287 katom-step/s
95.7% CPU use with 4 MPI tasks x 4 OpenMP threads

MPI task timing breakdown:
Section |  min time  |  avg time  |  max time  |%varavg| %total
---------------------------------------------------------------
Pair    | 359.53     | 361.45     | 363.81     |   9.1 | 91.56
Neigh   | 4.3457     | 4.4203     | 4.4927     |   3.1 |  1.12
Comm    | 15.238     | 17.675     | 19.671     |  42.9 |  4.48
Output  | 0.26304    | 0.2882     | 0.31343    |   3.5 |  0.07
Modify  | 9.32       | 9.3437     | 9.3716     |   0.7 |  2.37
Other   |            | 1.61       |            |       |  0.41

Nlocal:          91125 ave       91173 max       91067 min
Histogram: 1 0 1 0 0 0 0 0 0 2
Nghost:          40019 ave       40078 max       39972 min
Histogram: 2 0 0 0 0 0 0 1 0 1
Neighs:    5.84563e+06 ave 5.85676e+06 max 5.83489e+06 min
Histogram: 1 0 1 0 0 0 0 1 0 1

Total # of neighbors = 23382520
Ave neighs/atom = 64.149575
Neighbor list builds = 33
Dangerous builds = 0
if '$(time)>25' then 'write_data NiCoCrFe_pka_5keV_final.lmp' 'quit' 
No /omp style for force computation currently active
Per MPI rank memory allocation (min/avg/max) = 80.34 | 80.38 | 80.4 Mbytes
     Time         Step          Temp          Press          TotEng    
 14.478594          34000   363.72071     -26411.537     -1554649      
 14.633798          34100   364.27338     -26464.69      -1554649.1    
 14.791706          34200   364.13233     -26448.792     -1554649.1    
 14.950576          34300   363.71439     -26425.669     -1554649.1    
 15.109973          34400   363.83725     -26433.174     -1554649.1    
 15.266684          34500   362.85025     -26343.408     -1554649      
 15.420324          34600   363.81653     -26467.178     -1554649.1    
 15.577175          34700   364.38953     -26444.845     -1554649.1    
 15.736273          34800   363.63325     -26414.168     -1554649.1    
 15.892924          34900   363.50459     -26391.039     -1554649.1    
 16.04591           35000   362.87281     -26351.701     -1554649      
Loop time of 390.63 on 16 procs for 1000 steps with 364500 atoms

Performance: 0.347 ns/day, 69.261 hours/ns, 2.560 timesteps/s, 933.109 katom-step/s
97.1% CPU use with 4 MPI tasks x 4 OpenMP threads

MPI task timing breakdown:
Section |  min time  |  avg time  |  max time  |%varavg| %total
---------------------------------------------------------------
Pair    | 357.71     | 361.15     | 363.84     |  11.7 | 92.45
Neigh   | 4.5323     | 4.5765     | 4.6092     |   1.6 |  1.17
Comm    | 10.971     | 13.618     | 17.072     |  59.8 |  3.49
Output  | 0.29054    | 0.31136    | 0.33182    |   2.8 |  0.08
Modify  | 9.3527     | 9.4024     | 9.4712     |   1.4 |  2.41
Other   |            | 1.569      |            |       |  0.40

Nlocal:          91125 ave       91229 max       90962 min
Histogram: 1 0 0 0 1 0 0 0 0 2
Nghost:        40018.8 ave       40177 max       39916 min
Histogram: 2 0 0 0 0 1 0 0 0 1
Neighs:    5.84518e+06 ave 5.85235e+06 max 5.84016e+06 min
Histogram: 1 0 1 1 0 0 0 0 0 1

Total # of neighbors = 23380716
Ave neighs/atom = 64.144626
Neighbor list builds = 33
Dangerous builds = 0
if '$(time)>25' then 'write_data NiCoCrFe_pka_5keV_final.lmp' 'quit' 
No /omp style for force computation currently active
Per MPI rank memory allocation (min/avg/max) = 80.34 | 80.38 | 80.4 Mbytes
     Time         Step          Temp          Press          TotEng    
 16.04591           35000   362.87281     -26351.701     -1554649      
 16.20078           35100   363.64114     -26409.343     -1554649.1    
 16.354632          35200   363.24722     -26446.05      -1554649      
 16.511661          35300   363.74866     -26449.828     -1554649.1    
 16.668122          35400   363.8805      -26426.967     -1554649.1    
 16.825643          35500   363.46349     -26419.554     -1554649.1    
 16.980029          35600   363.31659     -26393.676     -1554649.1    
 17.137018          35700   363.27118     -26429.164     -1554649.1    
 17.293065          35800   363.42413     -26439.682     -1554649.1    
 17.453527          35900   363.31703     -26395.392     -1554649.1    
 17.609884          36000   363.72899     -26449.535     -1554649.1    
Loop time of 387.474 on 16 procs for 1000 steps with 364500 atoms

Performance: 0.378 ns/day, 63.429 hours/ns, 2.581 timesteps/s, 940.707 katom-step/s
97.3% CPU use with 4 MPI tasks x 4 OpenMP threads

MPI task timing breakdown:
Section |  min time  |  avg time  |  max time  |%varavg| %total
---------------------------------------------------------------
Pair    | 356.78     | 358.22     | 358.99     |   4.6 | 92.45
Neigh   | 4.5602     | 4.5839     | 4.6338     |   1.4 |  1.18
Comm    | 12.65      | 13.411     | 14.861     |  23.6 |  3.46
Output  | 0.27214    | 0.29684    | 0.31997    |   3.3 |  0.08
Modify  | 9.3695     | 9.4007     | 9.4238     |   0.7 |  2.43
Other   |            | 1.558      |            |       |  0.40

Nlocal:          91125 ave       91357 max       90931 min
Histogram: 1 1 0 0 0 0 1 0 0 1
Nghost:        40018.8 ave       40208 max       39789 min
Histogram: 1 0 0 1 0 0 0 0 1 1
Neighs:    5.84583e+06 ave 5.85492e+06 max 5.83482e+06 min
Histogram: 1 0 0 0 0 1 1 0 0 1

Total # of neighbors = 23383335
Ave neighs/atom = 64.151811
Neighbor list builds = 33
Dangerous builds = 0
if '$(time)>25' then 'write_data NiCoCrFe_pka_5keV_final.lmp' 'quit' 
No /omp style for force computation currently active
Per MPI rank memory allocation (min/avg/max) = 80.36 | 80.38 | 80.4 Mbytes
     Time         Step          Temp          Press          TotEng    
 17.609884          36000   363.72899     -26449.535     -1554649.1    
 17.767787          36100   362.93453     -26392.982     -1554649.1    
 17.924162          36200   363.783       -26405.035     -1554649.1    
 18.080249          36300   363.91093     -26452.567     -1554649.1    
 18.236791          36400   363.99985     -26466.687     -1554649.1    
 18.395327          36500   362.94284     -26366.17      -1554649.1    
 18.549639          36600   363.77756     -26421.119     -1554649      
 18.703765          36700   364.44946     -26470.515     -1554649.1    
 18.85984           36800   363.65669     -26390.226     -1554649.1    
 19.019852          36900   363.70725     -26379.866     -1554649.1    
 19.1749            37000   363.60634     -26424.33      -1554649.1    
Loop time of 381.446 on 16 procs for 1000 steps with 364500 atoms

Performance: 0.360 ns/day, 66.612 hours/ns, 2.622 timesteps/s, 955.575 katom-step/s
97.5% CPU use with 4 MPI tasks x 4 OpenMP threads

MPI task timing breakdown:
Section |  min time  |  avg time  |  max time  |%varavg| %total
---------------------------------------------------------------
Pair    | 352.26     | 353.02     | 353.93     |   3.3 | 92.55
Neigh   | 4.3825     | 4.4773     | 4.5952     |   3.8 |  1.17
Comm    | 11.717     | 12.68      | 13.345     |  17.3 |  3.32
Output  | 0.3103     | 0.33241    | 0.35457    |   2.9 |  0.09
Modify  | 9.3611     | 9.392      | 9.418      |   0.7 |  2.46
Other   |            | 1.546      |            |       |  0.41

Nlocal:          91125 ave       91204 max       91069 min
Histogram: 2 0 0 0 0 1 0 0 0 1
Nghost:        40018.5 ave       40075 max       39942 min
Histogram: 1 0 0 0 1 0 0 0 1 1
Neighs:    5.84526e+06 ave 5.84976e+06 max 5.83943e+06 min
Histogram: 1 0 0 1 0 0 0 0 1 1

Total # of neighbors = 23381042
Ave neighs/atom = 64.14552
Neighbor list builds = 32
Dangerous builds = 0
if '$(time)>25' then 'write_data NiCoCrFe_pka_5keV_final.lmp' 'quit' 
No /omp style for force computation currently active
Per MPI rank memory allocation (min/avg/max) = 80.36 | 80.39 | 80.4 Mbytes
     Time         Step          Temp          Press          TotEng    
 19.1749            37000   363.60634     -26424.33      -1554649.1    
 19.331559          37100   363.61496     -26435.505     -1554649.1    
 19.486214          37200   363.69048     -26426.315     -1554649.1    
 19.641449          37300   363.98686     -26448.822     -1554649.1    
 19.792545          37400   363.52894     -26411.188     -1554649.1    
 19.948557          37500   363.55778     -26458.829     -1554649.1    
 20.105018          37600   363.77323     -26429.416     -1554649.1    
 20.261868          37700   363.72439     -26435.922     -1554649.1    
 20.417071          37800   363.60848     -26430.716     -1554649.1    
 20.572766          37900   364.13327     -26471.529     -1554649.1    
 20.723485          38000   363.38724     -26357.792     -1554649.1    
Loop time of 383.204 on 16 procs for 1000 steps with 364500 atoms

Performance: 0.360 ns/day, 66.701 hours/ns, 2.610 timesteps/s, 951.191 katom-step/s
97.4% CPU use with 4 MPI tasks x 4 OpenMP threads

MPI task timing breakdown:
Section |  min time  |  avg time  |  max time  |%varavg| %total
---------------------------------------------------------------
Pair    | 351.56     | 353.88     | 357.16     |  11.2 | 92.35
Neigh   | 4.5647     | 4.5832     | 4.634      |   1.4 |  1.20
Comm    | 10.249     | 13.534     | 15.89      |  57.6 |  3.53
Output  | 0.27365    | 0.29558    | 0.31751    |   3.0 |  0.08
Modify  | 9.3041     | 9.3678     | 9.4488     |   1.7 |  2.44
Other   |            | 1.543      |            |       |  0.40

Nlocal:          91125 ave       91406 max       90826 min
Histogram: 1 0 1 0 0 0 0 0 1 1
Nghost:        40018.8 ave       40314 max       39739 min
Histogram: 1 1 0 0 0 0 0 1 0 1
Neighs:    5.84608e+06 ave 5.86185e+06 max  5.8314e+06 min
Histogram: 1 0 1 0 0 0 1 0 0 1

Total # of neighbors = 23384315
Ave neighs/atom = 64.154499
Neighbor list builds = 33
Dangerous builds = 0
if '$(time)>25' then 'write_data NiCoCrFe_pka_5keV_final.lmp' 'quit' 
No /omp style for force computation currently active
Per MPI rank memory allocation (min/avg/max) = 80.36 | 80.39 | 80.41 Mbytes
     Time         Step          Temp          Press          TotEng    
 20.723485          38000   363.38724     -26357.792     -1554649.1    
 20.881834          38100   363.44714     -26415.371     -1554649.1    
 21.039755          38200   363.43689     -26393.784     -1554649.1    
 21.194354          38300   363.12652     -26403.909     -1554649.1    
 21.353402          38400   364.29356     -26446.625     -1554649.1    
 21.510219          38500   363.53255     -26416.726     -1554649.1    
 21.668082          38600   363.6204      -26416.192     -1554649      
 21.824871          38700   363.26612     -26429.28      -1554649      
 21.982599          38800   363.90162     -26446.606     -1554649.1    
 22.140938          38900   363.35716     -26400.367     -1554649.1    
 22.299149          39000   363.78862     -26425.855     -1554649      
Loop time of 390.694 on 16 procs for 1000 steps with 364500 atoms

Performance: 0.360 ns/day, 66.671 hours/ns, 2.560 timesteps/s, 932.956 katom-step/s
96.9% CPU use with 4 MPI tasks x 4 OpenMP threads

MPI task timing breakdown:
Section |  min time  |  avg time  |  max time  |%varavg| %total
---------------------------------------------------------------
Pair    | 358.95     | 361.22     | 362.34     |   7.0 | 92.46
Neigh   | 4.4402     | 4.5028     | 4.5337     |   1.7 |  1.15
Comm    | 12.398     | 13.623     | 16.025     |  38.3 |  3.49
Output  | 0.25962    | 0.28119    | 0.30269    |   3.0 |  0.07
Modify  | 9.4282     | 9.4632     | 9.5171     |   1.1 |  2.42
Other   |            | 1.599      |            |       |  0.41

Nlocal:          91125 ave       91400 max       90932 min
Histogram: 1 1 0 0 1 0 0 0 0 1
Nghost:          40019 ave       40214 max       39741 min
Histogram: 1 0 0 0 0 1 0 0 1 1
Neighs:    5.84541e+06 ave 5.86945e+06 max 5.82367e+06 min
Histogram: 1 1 0 0 0 0 0 1 0 1

Total # of neighbors = 23381659
Ave neighs/atom = 64.147213
Neighbor list builds = 32
Dangerous builds = 0
if '$(time)>25' then 'write_data NiCoCrFe_pka_5keV_final.lmp' 'quit' 
No /omp style for force computation currently active
Per MPI rank memory allocation (min/avg/max) = 80.36 | 80.39 | 80.41 Mbytes
     Time         Step          Temp          Press          TotEng    
 22.299149          39000   363.78862     -26425.855     -1554649      
 22.45421           39100   363.55081     -26425.283     -1554649.1    
 22.610644          39200   364.26461     -26486.646     -1554649.1    
 22.764014          39300   363.72973     -26373.638     -1554649      
 22.921506          39400   363.78123     -26447.027     -1554649      
 23.077126          39500   363.72791     -26445.679     -1554649.1    
 23.234407          39600   363.83196     -26430.105     -1554649      
 23.391415          39700   363.77046     -26390.354     -1554649      
 23.550239          39800   364.03138     -26425.576     -1554649.1    
 23.709932          39900   364.0728      -26438.817     -1554649      
 23.867151          40000   363.71368     -26403.652     -1554649      
Loop time of 378.761 on 16 procs for 1000 steps with 364500 atoms

Performance: 0.356 ns/day, 67.434 hours/ns, 2.640 timesteps/s, 962.349 katom-step/s
97.2% CPU use with 4 MPI tasks x 4 OpenMP threads

MPI task timing breakdown:
Section |  min time  |  avg time  |  max time  |%varavg| %total
---------------------------------------------------------------
Pair    | 346.62     | 349.71     | 351.85     |  10.2 | 92.33
Neigh   | 4.3649     | 4.4176     | 4.4972     |   2.4 |  1.17
Comm    | 11.137     | 13.373     | 16.495     |  53.4 |  3.53
Output  | 0.27194    | 0.29326    | 0.31483    |   2.9 |  0.08
Modify  | 9.4152     | 9.4197     | 9.4284     |   0.2 |  2.49
Other   |            | 1.544      |            |       |  0.41

Nlocal:          91125 ave       91552 max       90688 min
Histogram: 2 0 0 0 0 0 0 0 0 2
Nghost:          40019 ave       40451 max       39594 min
Histogram: 2 0 0 0 0 0 0 0 0 2
Neighs:    5.84603e+06 ave 5.87325e+06 max   5.822e+06 min
Histogram: 2 0 0 0 0 0 0 0 1 1

Total # of neighbors = 23384129
Ave neighs/atom = 64.153989
Neighbor list builds = 32
Dangerous builds = 0
if '$(time)>25' then 'write_data NiCoCrFe_pka_5keV_final.lmp' 'quit' 
No /omp style for force computation currently active
Per MPI rank memory allocation (min/avg/max) = 80.36 | 80.39 | 80.41 Mbytes
     Time         Step          Temp          Press          TotEng    
 23.867151          40000   363.71368     -26403.652     -1554649      
 24.024563          40100   363.86097     -26386.784     -1554649      
 24.181752          40200   363.56309     -26438.001     -1554649      
 24.340735          40300   363.91503     -26427.732     -1554649      
 24.49635           40400   364.12913     -26493.29      -1554649.1    
 24.650813          40500   364.21332     -26464.56      -1554649      
 24.80429           40600   363.66314     -26435.957     -1554649      
 24.962315          40700   363.8007      -26385.586     -1554649      
 25.115785          40800   363.64707     -26468.344     -1554649      
 25.273683          40900   363.28516     -26384.507     -1554649      
 25.431683          41000   363.90056     -26443.772     -1554649      
Loop time of 430.421 on 16 procs for 1000 steps with 364500 atoms

Performance: 0.332 ns/day, 72.333 hours/ns, 2.323 timesteps/s, 846.846 katom-step/s
94.3% CPU use with 4 MPI tasks x 4 OpenMP threads

MPI task timing breakdown:
Section |  min time  |  avg time  |  max time  |%varavg| %total
---------------------------------------------------------------
Pair    | 393.51     | 394.8      | 395.51     |   3.9 | 91.73
Neigh   | 4.082      | 4.1193     | 4.1712     |   1.6 |  0.96
Comm    | 19.253     | 19.927     | 21.314     |  18.3 |  4.63
Output  | 0.38468    | 0.40907    | 0.43001    |   2.6 |  0.10
Modify  | 9.449      | 9.5045     | 9.5459     |   1.4 |  2.21
Other   |            | 1.657      |            |       |  0.38

Nlocal:          91125 ave       91501 max       90748 min
Histogram: 1 1 0 0 0 0 0 0 1 1
Nghost:          40019 ave       40398 max       39639 min
Histogram: 1 1 0 0 0 0 0 0 1 1
Neighs:    5.84551e+06 ave 5.88238e+06 max  5.8057e+06 min
Histogram: 1 0 1 0 0 0 0 0 1 1

Total # of neighbors = 23382040
Ave neighs/atom = 64.148258
Neighbor list builds = 32
Dangerous builds = 0
if '$(time)>25' then 'write_data NiCoCrFe_pka_5keV_final.lmp' 'quit' 
write_data NiCoCrFe_pka_5keV_final.lmp
System init for write_data ...
No /omp style for force computation currently active
quit
