LAMMPS (2 Aug 2023 - Update 2)
OMP_NUM_THREADS environment is not set. Defaulting to 1 thread. (src/comm.cpp:98)
  using 1 OpenMP thread(s) per MPI task
Loaded 1 plugins from C:\Users\Ratish Panda\AppData\Local\LAMMPS 64-bit 2Aug2023-MSMPI with Python\plugins
# Tensile Test Simulation in LAMMPS

# Initialize
units metal
boundary p p p
atom_style atomic

# Specify the number of OpenMP threads
package omp 4
set 4 OpenMP thread(s) per MPI task
using multi-threaded neighbor list subroutines

# Read data file (output from previous steps)
read_data NiCoCrFe_pka_5keV_final.lmp
Reading data file ...
  orthogonal box = (0.80381162 0.80381162 0.80381162) to (161.64619 161.64619 161.64619)
  2 by 1 by 2 MPI processor grid
  reading atoms ...
  364500 atoms
  reading velocities ...
  364500 velocities
  read_data CPU = 3.489 seconds

# Define potential (EAM potential for Nickel)
pair_style eam/alloy
pair_coeff * * FeNiCrCoCu-heafixed.setfl Ni Co Cr Fe

neighbor	 1 bin
neigh_modify every 1 delay 0 check yes

# Define relaxation parameters
reset_timestep 0
timestep 0.01
fix 1 all npt temp 300 300 0.8 iso 0 0 1 drag 1
thermo 100
thermo_style custom time step temp press etotal

# Relaxation for 20 ps
run 2000
No /omp style for force computation currently active
Neighbor list info ...
  update: every = 1 steps, delay = 0 steps, check = yes
  max neighbors/atom: 2000, page size: 100000
  master list distance cutoff = 6.80375
  ghost atom cutoff = 6.80375
  binsize = 3.401875, bins = 48 48 48
  1 neighbor lists, perpetual/occasional/extra = 1 0 0
  (1) pair eam/alloy, perpetual
      attributes: half, newton on, omp
      pair build: half/bin/atomonly/newton/omp
      stencil: half/bin/3d
      bin: standard
Per MPI rank memory allocation (min/avg/max) = 64.37 | 64.56 | 64.76 Mbytes
     Time         Step          Temp          Press          TotEng    
 0                      0   363.90056     -26443.772     -1554649      
 1                    100   359.35786      2.934018      -1555790.9    
 2                    200   351.80795     -13.755276     -1556542.1    
 3                    300   344.67557     -157.44641     -1557212.3    
 4                    400   338.40915     -163.32312     -1557810.6    
 5                    500   333.03998      33.640641     -1558345.4    
 6                    600   328.09517     -76.707779     -1558820.6    
 7                    700   323.40253      92.141204     -1559239.3    
 8                    800   319.54374     -16.961827     -1559608.3    
 9                    900   316.58902     -12.790977     -1559934.2    
 10                  1000   313.27837      180.92871     -1560215.2    
 11                  1100   310.90146      59.242325     -1560459.7    
 12                  1200   309.18835     -46.105254     -1560672.5    
 13                  1300   306.63443      137.70372     -1560848.2    
 14                  1400   305.54786      64.700705     -1560999      
 15                  1500   303.73384      27.647686     -1561122.6    
 16                  1600   302.93778      176.59653     -1561224.7    
 17                  1700   302.3002      -38.328062     -1561305.1    
 18                  1800   301.25996     -199.50005     -1561366.8    
 19                  1900   300.64733      30.789712     -1561415.5    
 20                  2000   301.07811     -158.11642     -1561452.2    
Loop time of 844.72 on 16 procs for 2000 steps with 364500 atoms

Performance: 2.046 ns/day, 11.732 hours/ns, 2.368 timesteps/s, 863.007 katom-step/s
100.8% CPU use with 4 MPI tasks x 4 OpenMP threads

MPI task timing breakdown:
Section |  min time  |  avg time  |  max time  |%varavg| %total
---------------------------------------------------------------
Pair    | 716.9      | 720.77     | 722.46     |   8.5 | 85.33
Neigh   | 49.71      | 49.851     | 50.051     |   2.0 |  5.90
Comm    | 28.658     | 30.593     | 34.638     |  43.0 |  3.62
Output  | 0.017649   | 0.017978   | 0.01829    |   0.2 |  0.00
Modify  | 39.851     | 39.912     | 39.955     |   0.6 |  4.72
Other   |            | 3.575      |            |       |  0.42

Nlocal:          91125 ave       91197 max       91056 min
Histogram: 1 0 0 1 0 1 0 0 0 1
Nghost:          40044 ave       40115 max       39961 min
Histogram: 1 0 0 0 1 0 1 0 0 1
Neighs:     6.0119e+06 ave 6.02276e+06 max 5.99719e+06 min
Histogram: 1 0 0 1 0 0 0 0 0 2

Total # of neighbors = 24047589
Ave neighs/atom = 65.974181
Neighbor list builds = 369
Dangerous builds = 0

# write output data
write_data NiCoCrFe_5KeV_Relaxed.lmp
System init for write_data ...
No /omp style for force computation currently active

#--------------------------
# Store final cell length for strain calculations
variable tmp equal "lx"
variable L0 equal ${tmp}
variable L0 equal 159.999340488642
print "Initial Length, L0: ${L0}"
Initial Length, L0: 159.999340488642

reset_timestep 0

fix 1 all npt temp 300 300 1 x 0 0 1 y 0 0 1 drag 1
variable srate equal 2.0e9
variable srate1 equal "v_srate / 1.0e12" # adjusting strain rate unit from per second to per picosecond
fix 2 all deform 1 z erate ${srate1} units box remap x
fix 2 all deform 1 z erate 0.002 units box remap x

# Output strain and stress info to file
# for units metal, pressure is in [bars] = 100 [kPa] = 1/10000 [GPa]
# p2, p3, p4 are in GPa
variable strain equal "(lz - v_L0)/v_L0"
variable p1 equal "v_strain"
variable p2 equal "-pxx/10000"
variable p3 equal "-pyy/10000"
variable p4 equal "-pzz/10000"
fix def1 all print 10 "${p1} ${p2} ${p3} ${p4}" file NiCoCrFe_Tensile_5KeV.def1.txt screen no

# dumping data
dump 1 all custom 1000 dump.NiCoCrFe_Tensile_5KeV_*.dump id type x y z
dump_modify 1 sort id

# Display thermo
thermo 100
thermo_style custom time step v_strain temp v_p2 v_p3 v_p4 ke pe press

# run tensile test for 100 ps
run 10000
No /omp style for force computation currently active
Per MPI rank memory allocation (min/avg/max) = 65.53 | 65.53 | 65.53 Mbytes
     Time         Step        v_strain         Temp           v_p2           v_p3           v_p4          KinEng         PotEng         Press     
 0                      0   1.7763642e-16  301.07811      0.01753259     0.016412549    0.013489788    14185.353     -1575637.5     -158.11642    
 1                    100   0.002          299.88426     -0.0070335142   0.0012988957   0.26068141     14129.105     -1575563.1     -849.82262    
 2                    200   0.004          300.46589     -0.006039692    0.0053127765   0.53641004     14156.509     -1575561.6     -1785.6104    
 3                    300   0.006          299.73575     -0.0010249964  -0.0070019899   0.79463526     14122.108     -1575470.5     -2622.0276    
 4                    400   0.008          299.46881     -0.004117309   -0.0072781328   1.0744482      14109.531     -1575380.9     -3543.5091    
 5                    500   0.01           299.91664      0.0021518419   0.0099588905   1.3431795      14130.63      -1575307.8     -4517.6342    
 6                    600   0.012          299.0971      -0.012654598   -0.014302854    1.5913278      14092.018     -1575157.1     -5214.5677    
 7                    700   0.014          299.66274     -0.0031985496  -0.0050974141   1.8611249      14118.668     -1575062.9     -6176.0964    
 8                    800   0.016          299.89917      0.0047862096   0.0034638758   2.1268692      14129.808     -1574936.3     -7117.0643    
 9                    900   0.018          299.84094     -0.018147235   -0.018600742    2.3775625      14127.064     -1574781.2     -7802.7152    
 10                  1000   0.02           299.98397      0.0050322236   0.01126349     2.6493427      14133.803     -1574622.9     -8885.4613    
 11                  1100   0.022          300.02346     -0.019395864   -0.028983388    2.8853559      14135.663     -1574446.4     -9456.5887    
 12                  1200   0.024          299.18104     -0.014950416   -0.010686857    3.1458216      14095.973     -1574212.5     -10400.615    
 13                  1300   0.026          299.47863      0.015222839    0.0082916007   3.4095341      14109.993     -1574022.3     -11443.495    
 14                  1400   0.028          299.87304     -0.0020680398   0.00077286211  3.6500846      14128.576     -1573825.4     -12162.631    
 15                  1500   0.03           299.53946      0.0018234888  -0.010423584    3.8945412      14112.86      -1573578       -12953.137    
 16                  1600   0.032          299.38549     -0.0093023336  -0.0095150465   4.1306152      14105.605     -1573329.7     -13705.993    
 17                  1700   0.034          299.60763      0.0099151103   0.01031903     4.3796961      14116.071     -1573085.1     -14666.434    
 18                  1800   0.036          299.65019      0.0063914401  -0.0096431443   4.6112607      14118.077     -1572821.7     -15360.03     
 19                  1900   0.038          299.68754      0.0042164922  -0.004726165    4.8443605      14119.836     -1572547.9     -16146.169    
 20                  2000   0.04           299.81552      0.017534296    0.013236908    5.0946149      14125.866     -1572264.9     -17084.62     
 21                  2100   0.042          299.98999     -0.0061675362  -0.0015915375   5.2992764      14134.086     -1571973.7     -17638.391    
 22                  2200   0.044          299.46049     -0.010475497   -0.007023204    5.5316137      14109.139     -1571637.6     -18380.383    
 23                  2300   0.046          300.22198      0.0086020727   0.008969991    5.7671438      14145.017     -1571357.3     -19282.386    
 24                  2400   0.048          299.43423     -0.0097109492  -0.018484193    5.9837691      14107.902     -1570988.3     -19851.913    
 25                  2500   0.05           300.06607     -0.015657134   -0.019537816    6.1978611      14137.671     -1570682.2     -20542.22     
 26                  2600   0.052          299.51788      0.0017011609   0.0050654538   6.4302397      14111.843     -1570305.3     -21456.688    
 27                  2700   0.054          299.50154     -0.013036112   -0.012193668    6.6447786      14111.073     -1569942.6     -22065.163    
 28                  2800   0.056          299.71719     -0.01155068    -0.014819639    6.8642548      14121.233     -1569581.9     -22792.948    
 29                  2900   0.058          299.32534      0.021225315    0.012976858    7.0913288      14102.771     -1569182.4     -23751.77     
 30                  3000   0.06           299.58645     -0.007477845   -0.0027716698   7.3013179      14115.073     -1568803.5     -24303.561    
 31                  3100   0.062          300.12435     -0.022881113   -0.015394283    7.5166201      14140.417     -1568426.3     -24927.816    
 32                  3200   0.064          299.52212     -0.0053523766  -0.011156599    7.738232       14112.043     -1567985.2     -25739.077    
 33                  3300   0.066          299.74599      0.0029626261   0.0076089393   7.9568605      14122.59      -1567572.8     -26558.107    
 34                  3400   0.068          299.39639      0.020761433    0.0063412507   8.1831726      14106.119     -1567122.4     -27367.584    
 35                  3500   0.07           299.73734      0.010000248    0.0048165978   8.4019369      14122.183     -1566693.2     -28055.846    
 36                  3600   0.072          299.51569      0.019581611    0.019805038    8.627715       14111.74      -1566230.2     -28890.339    
 37                  3700   0.074          299.99095      0.016568891    0.015499125    8.8483631      14134.131     -1565789.2     -29601.437    
 38                  3800   0.076          299.61439      0.0026688275  -0.00042119978  9.0558781      14116.39      -1565295.6     -30193.752    
 39                  3900   0.078          299.43435      0.0020904259   0.0085654016   9.2745037      14107.908     -1564803       -30950.532    
 40                  4000   0.08           299.46337     -0.0016345806  -0.0025935345   9.4913455      14109.275     -1564311.7     -31623.725    
 41                  4100   0.082          300.32361     -0.012006727   -0.0085795983   9.7033241      14149.805     -1563851       -32275.793    
 42                  4200   0.084          299.36322     -0.0013294855  -0.0068896685   9.9376438      14104.556     -1563288.6     -33098.082    
 43                  4300   0.086          299.20513     -0.0018272177  -0.001029234    10.155605      14097.108     -1562757.2     -33842.494    
 44                  4400   0.088          299.70342     -0.0062201041  -0.011751888    10.367814      14120.584     -1562246.1     -34499.474    
 45                  4500   0.09           300.44722     -0.010059491   -0.0066160063   10.606583      14155.629     -1561738.7     -35299.693    
 46                  4600   0.092          299.9929       0.0086809436   0.0085053264   10.833936      14134.224     -1561158.7     -36170.408    
 47                  4700   0.094          299.59652     -0.0021713714  -0.006340609    11.055272      14115.548     -1560570.2     -36822.535    
 48                  4800   0.096          299.63336      0.014481917    0.013665378    11.288362      14117.284     -1559995.3     -37721.699    
 49                  4900   0.098          299.21563     -0.01362467    -0.012278465    11.510856      14097.603     -1559384.7     -38283.175    
 50                  5000   0.1            299.06        -0.018845434   -0.026588025    11.724513      14090.27      -1558775.3     -38930.265    
 51                  5100   0.102          299.60435     -0.012543777   -0.013854578    11.965905      14115.917     -1558191.5     -39798.356    
 52                  5200   0.104          299.9979      -0.014452235   -0.010999853    12.196241      14134.459     -1557588.2     -40569.295    
 53                  5300   0.106          299.20689      0.017988098    0.018880526    12.439962      14097.19      -1556913.8     -41589.435    
 54                  5400   0.108          299.62902     -0.01050941    -0.0020886139   12.669921      14117.079     -1556288.8     -42191.076    
 55                  5500   0.11           299.32459     -0.00903305    -0.011313362    12.902839      14102.736     -1555616.7     -42941.641    
 56                  5600   0.112          299.48124     -0.023085608   -0.016776237    13.139273      14110.117     -1554955.9     -43664.703    
 57                  5700   0.114          299.34233      0.0021413043   0.0027144693   13.380603      14103.572     -1554269.3     -44618.197    
 58                  5800   0.116          299.93162      0.021411086    0.020570773    13.619663      14131.336     -1553606.7     -45538.817    
 59                  5900   0.118          300.0679       0.00042066446 -0.0064060606   13.855583      14137.757     -1552912.5     -46165.324    
 60                  6000   0.12           299.05806     -0.0062005557  -0.0084886197   14.088478      14090.179     -1552145.9     -46912.631    
 61                  6100   0.122          299.43105      0.010617634    0.01047127     14.333859      14107.752     -1551438.2     -47849.825    
 62                  6200   0.124          299.55025     -0.019470257   -0.020969853    14.563767      14113.368     -1550705.6     -48411.089    
 63                  6300   0.126          299.27799     -0.00035156205 -0.0025438182   14.807938      14100.54      -1549944       -49350.141    
 64                  6400   0.128          299.31578      0.010634005    0.0056435295   15.053455      14102.321     -1549184.7     -50232.442    
 65                  6500   0.13           299.04182     -0.0033319171  -0.0048526134   15.29361       14089.413     -1548398.2     -50951.417    
 66                  6600   0.132          299.37626      0.0099426876   0.010443652    15.532105      14105.17      -1547626.9     -51841.637    
 67                  6700   0.134          300.13171      0.0057773251   0.0068019436   15.687141      14140.764     -1546875.7     -52332.402    
 68                  6800   0.136          303.40081      0.013264623    0.011036821    15.734697      14294.788     -1546294       -52529.995    
 69                  6900   0.138          311.8527      -0.00063885527  0.013864868    15.291807      14693.001     -1546044.4     -51016.777    
 70                  7000   0.14           339.00774      0.0070027693   0.0091536238   13.667517      15972.415     -1546903.9     -45612.245    
 71                  7100   0.142          382.16414     -0.013213042    0.0014978537   10.723266      18005.737     -1548943.3     -35705.168    
 72                  7200   0.144          426.81042      0.003281628    0.0022904476   7.3517552      20109.256     -1551616       -24524.424    
 73                  7300   0.146          449.88947      0.0017534721   0.012469063    4.7026878      21196.63      -1553763.9     -15723.034    
 74                  7400   0.148          453.05595      0.015507453    0.0087212353   3.50025        21345.819     -1555161.7     -11748.262    
 75                  7500   0.15           452.07606     -0.003362453    0.026666392    3.1843177      21299.651     -1556404.5     -10692.072    
 76                  7600   0.152          449.1054       0.00042418075 -0.005727492    2.8676814      21159.688     -1557541.8     -9541.2603    
 77                  7700   0.154          443.7892       0.018717311    0.013875997    2.6312885      20909.214     -1558557.9     -8879.6059    
 78                  7800   0.156          436.78342      0.015241925    0.011251913    2.5838227      20579.135     -1559435       -8701.0551    
 79                  7900   0.158          428.76262      0.00011032284 -0.018313259    2.5036089      20201.234     -1560187.2     -8284.6867    
 80                  8000   0.16           420.0612      -0.0085290278  -0.020844617    2.4843943      19791.265     -1560844.6     -8183.402     
 81                  8100   0.162          411.84135      0.010542956    0.022580264    2.4192214      19403.985     -1561452.1     -8174.4821    
 82                  8200   0.164          404.26858     -0.0088685201  -0.0053380053   2.3558091      19047.193     -1562023.7     -7805.3419    
 83                  8300   0.166          396.5218       0.00014808888 -0.02141596     2.3827468      18682.202     -1562520.1     -7871.5964    
 84                  8400   0.168          388.99119     -0.020588518   -0.018958754    2.44842        18327.395     -1562959.5     -8029.5758    
 85                  8500   0.17           381.30831     -0.0035556956   0.009910377    2.5604665      17965.415     -1563324.6     -8556.0705    
 86                  8600   0.172          373.95346     -0.015821458   -0.0051848721   2.6690086      17618.89      -1563633.6     -8826.6741    
 87                  8700   0.174          367.53519     -0.039175006   -0.019912282    2.7282909      17316.492     -1563927       -8897.3455    
 88                  8800   0.176          362.17986      0.007423178    0.0063552223   2.8142963      17064.174     -1564219.7     -9426.9156    
 89                  8900   0.178          356.62014      0.02245338    -0.0023300499   2.8952377      16802.227     -1564447.9     -9717.87      
 90                  9000   0.18           351.75716     -0.0081990231  -0.0066836973   2.926721       16573.107     -1564661.5     -9706.1276    
 91                  9100   0.182          347.73655      0.0070846457  -0.0013601913   2.9517711      16383.675     -1564876.2     -9858.3184    
 92                  9200   0.184          343.91333     -0.011112773    0.021241015    2.9596197      16203.543     -1565062.3     -9899.1597    
 93                  9300   0.186          339.7364       0.0010712828   0.005690159    3.0361088      16006.746     -1565198.8     -10142.901    
 94                  9400   0.188          336.99619      0.008021227    0.0057225613   3.1181713      15877.641     -1565370.1     -10439.717    
 95                  9500   0.19           333.81245     -0.014024928    0.0097916956   3.1803885      15727.638     -1565487.6     -10587.184    
 96                  9600   0.192          330.8896       0.02651306     0.015232713    3.2711928      15589.928     -1565586.6     -11043.129    
 97                  9700   0.194          328.73372     -0.01783449    -0.0011975433   3.2979392      15488.353     -1565697.3     -10929.691    
 98                  9800   0.196          326.56924     -0.0043102371  -0.0023373698   3.3631684      15386.373     -1565787.9     -11188.403    
 99                  9900   0.198          324.46209      0.020704195    0.023453303    3.4796117      15287.094     -1565852       -11745.897    
 100                10000   0.2            322.24937      0.013686828   -0.0038206814   3.5134212      15182.842     -1565890.9     -11744.291    
Loop time of 5314.63 on 16 procs for 10000 steps with 364500 atoms

Performance: 1.626 ns/day, 14.763 hours/ns, 1.882 timesteps/s, 685.843 katom-step/s
97.0% CPU use with 4 MPI tasks x 4 OpenMP threads

MPI task timing breakdown:
Section |  min time  |  avg time  |  max time  |%varavg| %total
---------------------------------------------------------------
Pair    | 4494.3     | 4509.3     | 4520.8     |  14.4 | 84.85
Neigh   | 276.92     | 278.19     | 279.22     |   5.8 |  5.23
Comm    | 231.43     | 243.7      | 257.8      |  60.7 |  4.59
Output  | 3.625      | 3.9098     | 4.176      |  10.4 |  0.07
Modify  | 258.58     | 259.19     | 259.8      |   2.8 |  4.88
Other   |            | 20.36      |            |       |  0.38

Nlocal:          91125 ave       91223 max       91000 min
Histogram: 1 0 0 0 0 0 2 0 0 1
Nghost:        43388.2 ave       43508 max       43276 min
Histogram: 2 0 0 0 0 0 0 0 1 1
Neighs:    5.67912e+06 ave 5.69677e+06 max 5.65958e+06 min
Histogram: 1 1 0 0 0 0 0 0 0 2

Total # of neighbors = 22716461
Ave neighs/atom = 62.322252
Neighbor list builds = 2008
Dangerous builds = 0

# write output data
write_data NiCoCrFe_5KeV_Strained.lmp
System init for write_data ...
No /omp style for force computation currently active

# end of simulation
print "Tensile test simulation completed."
Tensile test simulation completed.


Total wall time: 1:42:46
