LAMMPS (2 Aug 2023 - Update 2)
OMP_NUM_THREADS environment is not set. Defaulting to 1 thread. (src/comm.cpp:98)
  using 1 OpenMP thread(s) per MPI task
Loaded 1 plugins from C:\Users\Ratish Panda\AppData\Local\LAMMPS 64-bit 2Aug2023-MSMPI with Python\plugins
# Initialize
units metal
boundary p p p
atom_style atomic

# Read data file
read_data NiCoCrFe_random.lmp
Reading data file ...
  orthogonal box = (0 0 0) to (162.45 162.45 162.45)
  2 by 1 by 2 MPI processor grid
  reading atoms ...
  364500 atoms
  read_data CPU = 1.249 seconds

# Define potential (EAM potential for Nickel)
pair_style eam/alloy
pair_coeff * * FeNiCrCoCu-heafixed.setfl Ni Co Cr Fe

# Define relaxation parameters
reset_timestep 0
timestep 0.01
thermo 100
thermo_style custom time step temp ke pe press etotal

# Dump settings for atomic configurations
dump 1 all custom 1000 NiCoCrFe_relaxed_*.dump id type x y z
dump_modify 1 sort id

# Relaxation run in NPT ensemble for 100 ps
fix 1 all npt temp 300 300 0.1 iso 0.0 0.0 1000.0 drag 1.0
run 10000
Neighbor list info ...
  update: every = 1 steps, delay = 0 steps, check = yes
  max neighbors/atom: 2000, page size: 100000
  master list distance cutoff = 7.80375
  ghost atom cutoff = 7.80375
  binsize = 3.901875, bins = 42 42 42
  1 neighbor lists, perpetual/occasional/extra = 1 0 0
  (1) pair eam/alloy, perpetual
      attributes: half, newton on
      pair build: half/bin/atomonly/newton
      stencil: half/bin/3d
      bin: standard
Per MPI rank memory allocation (min/avg/max) = 59.3 | 59.49 | 59.69 Mbytes
     Time         Step          Temp          KinEng         PotEng         Press          TotEng    
 0                      0   0              0             -1580745.5     -107553.66     -1580745.5    
 1                    100   13.08957       616.71763     -1580878.8     -103225.19     -1580262.1    
 2                    200   21.823399      1028.2137     -1580490.2     -102591.04     -1579462      
 3                    300   35.803197      1686.8746     -1579866       -101539.99     -1578179.2    
 4                    400   57.551178      2711.5349     -1578894.2     -99831.654     -1576182.7    
 5                    500   89.666306      4224.6453     -1577471.2     -97226.448     -1573246.6    
 6                    600   132.81676      6257.6876     -1575557.9     -93480.111     -1569300.2    
 7                    700   184.15263      8676.3868     -1573336.8     -88823.771     -1564660.5    
 8                    800   235.11111      11077.305     -1571210.7     -84016.346     -1560133.4    
 9                    900   272.889        12857.218     -1569558       -79888.08      -1556700.8    
 10                  1000   294.59866      13880.073     -1568805.3     -77372.671     -1554925.3    
 11                  1100   300.11167      14139.819     -1568677.8     -76091.903     -1554538      
 12                  1200   299.72201      14121.46      -1568781.9     -75292.99      -1554660.4    
 13                  1300   300.16801      14142.474     -1568915.2     -74605.711     -1554772.7    
 14                  1400   300.30824      14149.081     -1569036.1     -73974.318     -1554887      
 15                  1500   300.78694      14171.635     -1569167.2     -73329.789     -1554995.6    
 16                  1600   300.45137      14155.825     -1569254.4     -72603.35      -1555098.6    
 17                  1700   300.18573      14143.309     -1569344.9     -71888.497     -1555201.6    
 18                  1800   299.92386      14130.971     -1569433.2     -71241.886     -1555302.2    
 19                  1900   299.68881      14119.896     -1569526.3     -70585.137     -1555406.4    
 20                  2000   300.13078      14140.72      -1569653.1     -69963.246     -1555512.4    
 21                  2100   299.88611      14129.192     -1569741.9     -69203.187     -1555612.7    
 22                  2200   300.13833      14141.076     -1569856.2     -68566.215     -1555715.1    
 23                  2300   300.03642      14136.274     -1569951.4     -67873.232     -1555815.1    
 24                  2400   300.17982      14143.03      -1570056.1     -67199.795     -1555913.1    
 25                  2500   300.54686      14160.323     -1570171.8     -66539.367     -1556011.4    
 26                  2600   300.20382      14144.161     -1570246.6     -65878.316     -1556102.5    
 27                  2700   300.20355      14144.148     -1570338.7     -65255.064     -1556194.5    
 28                  2800   299.7405       14122.332     -1570402.4     -64535.458     -1556280.1    
 29                  2900   300.07259      14137.978     -1570506.7     -63982.924     -1556368.7    
 30                  3000   300.2287       14145.333     -1570597       -63359.548     -1556451.7    
 31                  3100   300.56068      14160.975     -1570692.6     -62793.46      -1556531.6    
 32                  3200   300.02788      14135.871     -1570745       -62183.814     -1556609.2    
 33                  3300   299.92204      14130.885     -1570819.4     -61615.575     -1556688.5    
 34                  3400   299.81176      14125.689     -1570885.9     -61038.203     -1556760.2    
 35                  3500   300.17119      14142.624     -1570977.9     -60509.475     -1556835.3    
 36                  3600   300.06697      14137.714     -1571044.3     -59972.932     -1556906.6    
 37                  3700   299.57042      14114.318     -1571092.7     -59380.955     -1556978.4    
 38                  3800   300.4777       14157.065     -1571204.4     -58879.98      -1557047.4    
 39                  3900   300.50283      14158.249     -1571271.6     -58359.778     -1557113.4    
 40                  4000   299.83981      14127.011     -1571311.1     -57815.19      -1557184.1    
 41                  4100   300.07021      14137.866     -1571389.5     -57252.355     -1557251.6    
 42                  4200   300.0033       14134.714     -1571449.4     -56693.804     -1557314.7    
 43                  4300   299.9191       14130.747     -1571510       -56212.818     -1557379.2    
 44                  4400   299.90919      14130.28      -1571572.2     -55669.135     -1557441.9    
 45                  4500   299.85643      14127.794     -1571630.9     -55189.673     -1557503.1    
 46                  4600   299.83385      14126.73      -1571690.4     -54652.457     -1557563.7    
 47                  4700   299.91958      14130.769     -1571761.1     -54160.86      -1557630.4    
 48                  4800   300.02142      14135.567     -1571823.1     -53664.66      -1557687.5    
 49                  4900   299.89576      14129.647     -1571874.6     -53209.592     -1557745      
 50                  5000   300.29732      14148.566     -1571951       -52711.314     -1557802.4    
 51                  5100   300.5548       14160.698     -1572019       -52185.437     -1557858.3    
 52                  5200   300.04323      14136.595     -1572053.1     -51661.512     -1557916.5    
 53                  5300   299.95825      14132.591     -1572104.6     -51164.703     -1557972      
 54                  5400   299.71746      14121.246     -1572150.8     -50624.776     -1558029.6    
 55                  5500   300.06177      14137.468     -1572219.2     -50174.786     -1558081.7    
 56                  5600   299.73327      14121.991     -1572254.8     -49675.918     -1558132.8    
 57                  5700   299.87203      14128.529     -1572315.4     -49242.781     -1558186.9    
 58                  5800   299.88917      14129.336     -1572371.7     -48747.394     -1558242.3    
 59                  5900   299.57577      14114.571     -1572406.5     -48264.712     -1558291.9    
 60                  6000   299.71644      14121.198     -1572464.1     -47802.751     -1558342.9    
 61                  6100   299.784        14124.381     -1572516.4     -47304.764     -1558392      
 62                  6200   299.30989      14102.044     -1572544.3     -46867.834     -1558442.3    
 63                  6300   299.94809      14132.112     -1572621.4     -46425.608     -1558489.3    
 64                  6400   300.23219      14145.498     -1572684.7     -45955.061     -1558539.2    
 65                  6500   300.53304      14159.672     -1572741.9     -45566.523     -1558582.3    
 66                  6600   300.12461      14140.429     -1572771.9     -45059.125     -1558631.5    
 67                  6700   299.71247      14121.011     -1572798.4     -44579.613     -1558677.4    
 68                  6800   300.06046      14137.407     -1572860       -44116.513     -1558722.6    
 69                  6900   299.85821      14127.878     -1572897.4     -43713.736     -1558769.6    
 70                  7000   299.68364      14119.653     -1572927.8     -43238.215     -1558808.2    
 71                  7100   299.85724      14127.832     -1572983.6     -42811.859     -1558855.8    
 72                  7200   300.59433      14162.56      -1573063.1     -42376.765     -1558900.5    
 73                  7300   299.96349      14132.838     -1573073.7     -41943.911     -1558940.9    
 74                  7400   299.74819      14122.694     -1573105.4     -41525.499     -1558982.7    
 75                  7500   300.26561      14147.072     -1573169.7     -41027.939     -1559022.6    
 76                  7600   300.49405      14157.835     -1573223.3     -40716.462     -1559065.5    
 77                  7700   299.59517      14115.484     -1573223.7     -40214.99      -1559108.2    
 78                  7800   299.68605      14119.766     -1573263.1     -39782.474     -1559143.3    
 79                  7900   299.82141      14126.144     -1573310.9     -39386.74      -1559184.7    
 80                  8000   299.94342      14131.892     -1573357.3     -38992.956     -1559225.4    
 81                  8100   299.95997      14132.672     -1573395.4     -38537.243     -1559262.8    
 82                  8200   300.03645      14136.275     -1573433.7     -38155.611     -1559297.4    
 83                  8300   300.45852      14156.161     -1573493.1     -37706.099     -1559336.9    
 84                  8400   300.6207       14163.802     -1573540.1     -37407.408     -1559376.3    
 85                  8500   299.9882       14134.002     -1573542.1     -36919.954     -1559408.1    
 86                  8600   300.02469      14135.721     -1573581.3     -36508.998     -1559445.5    
 87                  8700   299.90209      14129.945     -1573613.5     -36084.357     -1559483.5    
 88                  8800   300.22984      14145.387     -1573658.9     -35713.746     -1559513.5    
 89                  8900   299.68537      14119.734     -1573667.8     -35263.74      -1559548.1    
 90                  9000   300.19021      14143.52      -1573727.5     -34907.752     -1559584      
 91                  9100   299.56747      14114.179     -1573733.2     -34470.939     -1559619      
 92                  9200   299.96516      14132.917     -1573781.2     -34072.994     -1559648.2    
 93                  9300   300.08238      14138.439     -1573817.3     -33767.089     -1559678.9    
 94                  9400   300.23747      14145.747     -1573859.4     -33316.387     -1559713.7    
 95                  9500   300.00782      14134.927     -1573880.4     -32956.984     -1559745.5    
 96                  9600   299.90521      14130.092     -1573905.4     -32573.524     -1559775.4    
 97                  9700   299.65511      14118.309     -1573925.6     -32103.435     -1559807.3    
 98                  9800   300.31237      14149.276     -1573987.3     -31836.383     -1559838.1    
 99                  9900   299.87871      14128.843     -1573994.7     -31417.508     -1559865.9    
 100                10000   300.1357       14140.952     -1574038.3     -31077.657     -1559897.4    
Loop time of 3924.08 on 4 procs for 10000 steps with 364500 atoms

Performance: 2.202 ns/day, 10.900 hours/ns, 2.548 timesteps/s, 928.879 katom-step/s
95.1% CPU use with 4 MPI tasks x 1 OpenMP threads

MPI task timing breakdown:
Section |  min time  |  avg time  |  max time  |%varavg| %total
---------------------------------------------------------------
Pair    | 3561.8     | 3572.3     | 3587.3     |  16.8 | 91.03
Neigh   | 1.4325     | 1.4609     | 1.5067     |   2.4 |  0.04
Comm    | 126.2      | 141.16     | 151.59     |  84.1 |  3.60
Output  | 2.8728     | 3.1076     | 3.3461     |  10.0 |  0.08
Modify  | 172.42     | 172.66     | 172.89     |   1.4 |  4.40
Other   |            | 33.43      |            |       |  0.85

Nlocal:          91125 ave       91320 max       90903 min
Histogram: 1 1 0 0 0 0 0 0 0 2
Nghost:          53217 ave       53439 max       53022 min
Histogram: 2 0 0 0 0 0 0 0 1 1
Neighs:    8.02622e+06 ave 8.07289e+06 max 7.98491e+06 min
Histogram: 2 0 0 0 0 0 0 1 0 1

Total # of neighbors = 32104862
Ave neighs/atom = 88.079182
Neighbor list builds = 5
Dangerous builds = 0

# Write relaxed structure
write_data NiCoCrFe_relaxed.lmp
System init for write_data ...
Total wall time: 1:05:26
