LAMMPS (2 Aug 2023 - Update 2)
OMP_NUM_THREADS environment is not set. Defaulting to 1 thread. (src/comm.cpp:98)
  using 1 OpenMP thread(s) per MPI task
Loaded 1 plugins from C:\Users\Ratish Panda\AppData\Local\LAMMPS 64-bit 2Aug2023-MSMPI with Python\plugins
# Tensile Test Simulation in LAMMPS

# Initialize
units metal
boundary p p p
atom_style atomic

# Specify the number of OpenMP threads
package omp 4
set 4 OpenMP thread(s) per MPI task
using multi-threaded neighbor list subroutines

# Read data file (output from previous steps)
read_data Ni_relaxed.lmp
Reading data file ...
  orthogonal box = (-0.013463769 -0.013463769 -0.013463769) to (158.41346 158.41346 158.41346)
  1 by 2 by 2 MPI processor grid
  reading atoms ...
  364500 atoms
  reading velocities ...
  364500 velocities
  read_data CPU = 4.115 seconds

# Define potential (EAM potential for Nickel)
pair_style eam
pair_coeff * * Ni_u3.eam
Reading eam potential file Ni_u3.eam with DATE: 2007-06-11

neighbor	 1 bin
neigh_modify	 delay 5

#--------------------------
# Store final cell length for strain calculations
variable tmp equal "lx"
variable L0 equal ${tmp}
variable L0 equal 158.426927538228
print "Initial Length, L0: ${L0}"
Initial Length, L0: 158.426927538228

reset_timestep 0
timestep 0.01

fix 1 all npt temp 300 300 1 x 0 0 1 y 0 0 1 drag 1
variable srate equal 2.0e9
variable srate1 equal "v_srate / 1.0e12" # adjusting strain rate unit from per second to per picosecond
fix 2 all deform 1 z erate ${srate1} units box remap x
fix 2 all deform 1 z erate 0.002 units box remap x

# Output strain and stress info to file
# for units metal, pressure is in [bars] = 100 [kPa] = 1/10000 [GPa]
# p2, p3, p4 are in GPa
variable strain equal "(lz - v_L0)/v_L0"
variable p1 equal "v_strain"
variable p2 equal "-pxx/10000"
variable p3 equal "-pyy/10000"
variable p4 equal "-pzz/10000"
fix def1 all print 10 "${p1} ${p2} ${p3} ${p4}" file Ni_Tensile_5KeV.def1.txt screen no

# dumping data
dump 1 all custom 1000 dump.Ni_Tensile_5KeV_*.dump id type x y z
dump_modify 1 sort id

# Display thermo
thermo 100
thermo_style custom time step v_strain temp v_p2 v_p3 v_p4 ke pe press

# run tensile test for 100 ps
run 10000
No /omp style for force computation currently active
Neighbor list info ...
  update: every = 1 steps, delay = 5 steps, check = yes
  max neighbors/atom: 2000, page size: 100000
  master list distance cutoff = 5.8
  ghost atom cutoff = 5.8
  binsize = 2.9, bins = 55 55 55
  1 neighbor lists, perpetual/occasional/extra = 1 0 0
  (1) pair eam, perpetual
      attributes: half, newton on, omp
      pair build: half/bin/atomonly/newton/omp
      stencil: half/bin/3d
      bin: standard
Per MPI rank memory allocation (min/avg/max) = 52.48 | 52.48 | 52.48 Mbytes
     Time         Step        v_strain         Temp           v_p2           v_p3           v_p4          KinEng         PotEng         Press     
 0                      0   1.2557964e-15  299.99932     -0.16693335    -0.7513979      0.055157167    14134.526     -1622024        2877.2469    
 1                    100   0.002          299.34554      0.00030804972 -0.0065895906   0.61943812     14103.723     -1621973       -2043.8552    
 2                    200   0.004          300.19366     -0.00071404885 -0.00056728963  0.84366088     14143.682     -1621953.8     -2807.9318    
 3                    300   0.006          300.45655     -0.0003472216   0.00075027521  1.0697141      14156.069     -1621924.2     -3567.0571    
 4                    400   0.008          300.41119      0.00050436162  0.00055708829  1.298574       14153.931     -1621883.4     -4332.1181    
 5                    500   0.01           300.36197      0.00074613186  0.00036685272  1.5305458      14151.612     -1621831       -5105.5294    
 6                    600   0.012          300.34636      0.00060649463  0.00030626368  1.765727       14150.877     -1621766.9     -5888.799     
 7                    700   0.014          300.33732      0.00044533685  0.00026689563  2.0041069      14150.451     -1621690.8     -6682.7306    
 8                    800   0.016          300.32861      0.00036570149  0.00023940456  2.2456013      14150.041     -1621602.8     -7487.3545    
 9                    900   0.018          300.3198       0.00034784248  0.00022809015  2.4900776      14149.625     -1621502.7     -8302.1783    
 10                  1000   0.02           300.31167      0.0003594497   0.00023156296  2.7374002      14149.242     -1621390.4     -9126.6373    
 11                  1100   0.022          300.30422      0.0003748026   0.00023610954  2.9874571      14148.892     -1621265.8     -9960.2267    
 12                  1200   0.024          300.29604      0.00037913114  0.0002290817   3.2401339      14148.506     -1621128.7     -10802.474    
 13                  1300   0.026          300.28785      0.00037730598  0.00021779398  3.4953208      14148.12      -1620979       -11653.053    
 14                  1400   0.028          300.27985      0.00037729481  0.00020844918  3.7528886      14147.743     -1620816.7     -12511.581    
 15                  1500   0.03           300.27151      0.0003771863   0.00019728547  4.0127042      14147.35      -1620641.7     -13377.595    
 16                  1600   0.032          300.26347      0.00038099086  0.000191134    4.2746565      14146.972     -1620453.9     -14250.762    
 17                  1700   0.034          300.25445      0.00038000786  0.00017791107  4.5386142      14146.546     -1620253.2     -15130.574    
 18                  1800   0.036          300.24601      0.00038693709  0.00016929121  4.8044615      14146.149     -1620039.5     -16016.726    
 19                  1900   0.038          300.23716      0.00039271969  0.00015860244  5.0720565      14145.732     -1619812.8     -16908.693    
 20                  2000   0.04           300.22746      0.00039571249  0.0001444213   5.3412474      14145.275     -1619572.9     -17805.958    
 21                  2100   0.042          300.21774      0.00040146974  0.0001314357   5.6119096      14144.817     -1619319.8     -18708.142    
 22                  2200   0.044          300.20796      0.00041070857  0.00012032305  5.8838824      14144.356     -1619053.4     -19614.711    
 23                  2300   0.046          300.1972       0.00041871817  0.00010189927  6.1569925      14143.849     -1618773.7     -20525.044    
 24                  2400   0.048          300.1862       0.00043301092  8.6856561e-05  6.4310703      14143.331     -1618480.6     -21438.634    
 25                  2500   0.05           300.17445      0.00044544031  6.9386351e-05  6.705944       14142.777     -1618174.1     -22354.863    
 26                  2600   0.052          300.16176      0.00046018724  4.6742853e-05  6.9814187      14142.179     -1617854       -23273.085    
 27                  2700   0.054          300.14837      0.00048072794  2.4418901e-05  7.257256       14141.549     -1617520.4     -24192.537    
 28                  2800   0.056          300.13403      0.00050595375 -1.5468328e-06  7.5331789      14140.873     -1617173.2     -25112.278    
 29                  2900   0.058          300.11846      0.00053827872 -2.8765861e-05  7.8089011      14140.139     -1616812.3     -26031.369    
 30                  3000   0.06           300.10098      0.00057415607 -6.6642463e-05  8.0840896      14139.316     -1616437.7     -26948.657    
 31                  3100   0.062          300.08194      0.00062189145 -0.00011024427  8.3583245      14138.418     -1616049.3     -27862.787    
 32                  3200   0.064          300.061        0.00069031774 -0.00015767733  8.6310769      14137.432     -1615647       -28772.032    
 33                  3300   0.066          300.03673      0.00077222179 -0.00022396054  8.901737       14136.289     -1615230.7     -29674.284    
 34                  3400   0.068          300.00884      0.00088106014 -0.00031137425  9.169485       14134.975     -1614800.4     -30566.849    
 35                  3500   0.07           299.97666      0.0010378341  -0.00042782383  9.4332262      14133.458     -1614356.1     -31446.121    
 36                  3600   0.072          299.93947      0.0012720293  -0.00058977282  9.6915858      14131.706     -1613897.5     -32307.56     
 37                  3700   0.074          299.89492      0.0016331556  -0.00084436101  9.942664       14129.607     -1613424.6     -33144.843    
 38                  3800   0.076          299.84125      0.0022116228  -0.0012478538   10.183842      14127.079     -1612937.3     -33949.353    
 39                  3900   0.078          299.77488      0.0031172558  -0.0019057503   10.411574      14123.951     -1612435.7     -34709.286    
 40                  4000   0.08           299.68892      0.0043723801  -0.0028630053   10.620343      14119.901     -1611919.6     -35406.175    
 41                  4100   0.082          299.57243      0.0058854781  -0.0040772413   10.801782      14114.413     -1611389.1     -36011.969    
 42                  4200   0.084          299.41761      0.0079919802  -0.0057675547   10.944611      14107.119     -1610844.9     -36489.451    
 43                  4300   0.086          299.21396      0.01120492    -0.0083268714   11.033977      14097.524     -1610288.5     -36789.516    
 44                  4400   0.088          298.94732      0.015841476   -0.011982003    11.049295      14084.961     -1609722.9     -36843.847    
 45                  4500   0.09           298.61931      0.022075577   -0.016812733    10.965527      14069.506     -1609153       -36569.3      
 46                  4600   0.092          298.25958      0.029537978   -0.02243011     10.756544      14052.558     -1608586.7     -35878.838    
 47                  4700   0.094          297.92576      0.036998376   -0.027776925    10.402371      14036.83      -1608033.8     -34705.309    
 48                  4800   0.096          297.68775      0.042367451   -0.031236168    9.9001879      14025.616     -1607505.4     -33037.731    
 49                  4900   0.098          297.60612      0.04367435    -0.031451896    9.274078       14021.77      -1607010.9     -30954.335    
 50                  5000   0.1            297.70746      0.040572846   -0.028439599    8.5746514      14026.545     -1606556       -28622.616    
 51                  5100   0.102          297.97091      0.034846764   -0.023741994    7.8619025      14038.957     -1606142.4     -26243.357    
 52                  5200   0.104          298.33704      0.028933906   -0.019178381    7.1807585      14056.208     -1605768.7     -23968.38     
 53                  5300   0.106          313.17819      0.40723453    -0.29678275     5.2020699      14755.451     -1606207.4     -17708.405    
 54                  5400   0.108          330.41906      0.018762595   -0.014853716    5.1818485      15567.758     -1607111       -17285.858    
 55                  5500   0.11           335.88966      0.00071860542 -0.00028093131  4.6007362      15825.506     -1607529       -15337.246    
 56                  5600   0.112          336.24056      0.0064266314  -0.0024494284   3.7790538      15842.039     -1607775.3     -12610.103    
 57                  5700   0.114          335.4443      -0.0087347267   0.0088232921   3.4082987      15804.523     -1607993.2     -11361.291    
 58                  5800   0.116          333.78294      0.011951203   -0.0072176484   3.2447994      15726.248     -1608171.9     -10831.777    
 59                  5900   0.118          331.44318     -0.0069955568   0.0075196663   2.9423388      15616.01      -1608309.6     -9809.5431    
 60                  6000   0.12           331.2413      -0.0027445542   0.0059054204   2.8677686      15606.498     -1608544.3     -9569.765     
 61                  6100   0.122          331.6255       0.0014359767   0.0038229639   2.588257       15624.6       -1608811.7     -8645.0532    
 62                  6200   0.124          331.27577     -0.0060659149   0.00048979466  2.3120205      15608.122     -1609060.1     -7688.1479    
 63                  6300   0.126          329.23198     -0.0037706328  -0.00064474088  2.1361677      15511.828     -1609230.7     -7105.841     
 64                  6400   0.128          327.34273      0.0072842495   0.0063484731   2.0253947      15422.816     -1609396.2     -6796.7581    
 65                  6500   0.13           326.61529     -0.007283069    0.0039149338   1.893308       15388.543     -1609610.7     -6299.7995    
 66                  6600   0.132          324.63549     -0.0049215494   0.0053311552   1.8689309      15295.264     -1609758.9     -6231.135     
 67                  6700   0.134          322.55247      0.003841205    0.0053029721   1.9003377      15197.122     -1609883.5     -6364.9397    
 68                  6800   0.136          320.44714     -0.0027368075  -0.0030994193   1.9591631      15097.929     -1609986.8     -6511.0895    
 69                  6900   0.138          319.18558      0.0085436062  -0.010988508    2.0998384      15038.49      -1610104.3     -6991.3116    
 70                  7000   0.14           318.06802     -0.0036095822   0.0085440293   2.113095       14985.836     -1610213.3     -7060.098     
 71                  7100   0.142          316.60587     -0.014199409    4.3306701e-05  2.1677951      14916.947     -1610292.2     -7178.7965    
 72                  7200   0.144          314.66616      0.0052095519  -0.012471679    2.1304781      14825.557     -1610331.2     -7077.3866    
 73                  7300   0.146          312.66396      0.0061778245   0.00058170339  2.0888399      14731.223     -1610349.5     -6985.3313    
 74                  7400   0.148          311.25789     -0.00013448967 -0.0058481336   2.1239321      14664.976     -1610377.3     -7059.8315    
 75                  7500   0.15           309.61261      0.0041303517  -0.0015071533   2.1890102      14587.458     -1610372.7     -7305.4447    
 76                  7600   0.152          308.4568      -0.0040443708  -0.00069670488  2.2482574      14533.002     -1610372.3     -7478.3878    
 77                  7700   0.154          307.68817     -0.00050671915  0.011985177    2.27344        14496.788     -1610375.8     -7616.3948    
 78                  7800   0.156          307.94608     -0.0035329531   0.0090732998   2.2596951      14508.939     -1610420.3     -7550.785     
 79                  7900   0.158          307.22298     -0.0082304172  -0.0028120396   2.2193957      14474.87      -1610419.7     -7361.1776    
 80                  8000   0.16           306.7166      -0.0038548781   0.0091900917   2.3173992      14451.012     -1610419.9     -7742.4481    
 81                  8100   0.162          306.17504      0.0036451335   0.0033690864   2.3665398      14425.496     -1610410.1     -7911.8467    
 82                  8200   0.164          305.84654      0.0047589414  -0.001310347    2.4328439      14410.019     -1610401.3     -8120.9751    
 83                  8300   0.166          305.7138      -0.0063755621   0.011458182    2.5431233      14403.765     -1610398.4     -8494.0197    
 84                  8400   0.168          305.07851      0.0060816572   8.441819e-06   2.7245534      14373.833     -1610356.9     -9102.1448    
 85                  8500   0.17           304.07175     -0.0031906189  -0.0098520809   2.8360837      14326.399     -1610283.3     -9410.1366    
 86                  8600   0.172          303.95838     -0.0026275257   0.001309593    2.9100993      14321.058     -1610237.8     -9695.9378    
 87                  8700   0.174          303.1998      -0.00072080182  0.0051837327   3.0531796      14285.317     -1610151.8     -10192.142    
 88                  8800   0.176          303.17352     -0.0046296523   0.001093962    3.122564       14284.079     -1610088.4     -10396.761    
 89                  8900   0.178          302.48806      0.0032654827  -0.0014758129   3.2303741      14251.783     -1609981.7     -10773.879    
 90                  9000   0.18           302.44512      0.0037292255  -0.0020680429   3.3426561      14249.76      -1609895.8     -11147.724    
 91                  9100   0.182          302.25791      0.0052038302  -0.0025350128   3.4345212      14240.94      -1609795.8     -11457.3      
 92                  9200   0.184          302.23544     -0.0031636342  -0.0058481635   3.4580131      14239.881     -1609701.8     -11496.671    
 93                  9300   0.186          302.40622     -0.0091288414   0.0055997308   3.4866299      14247.928     -1609619.2     -11610.336    
 94                  9400   0.188          302.55786      0.0029812353  -0.003344657    3.520869       14255.072     -1609535.1     -11735.019    
 95                  9500   0.19           302.37375     -0.0054299827  -2.0378908e-05  3.6675409      14246.398     -1609432.1     -12206.969    
 96                  9600   0.192          302.39448      0.0073361262   0.0020676108   3.8151441      14247.375     -1609329.1     -12748.493    
 97                  9700   0.194          302.83747     -0.0036792836  -0.00090112545  3.9408326      14268.246     -1609242.6     -13120.841    
 98                  9800   0.196          302.9422       0.0060421624   0.016932734    4.0503215      14273.181     -1609142.7     -13577.655    
 99                  9900   0.198          302.67961     -0.00537567     0.0020216234   4.1103717      14260.808     -1609020.2     -13690.059    
 100                10000   0.2            302.96562      0.00081854293 -0.009232814    4.1566059      14274.284     -1608922.8     -13827.306    
Loop time of 2516.54 on 16 procs for 10000 steps with 364500 atoms

Performance: 3.433 ns/day, 6.990 hours/ns, 3.974 timesteps/s, 1.448 Matom-step/s
100.4% CPU use with 4 MPI tasks x 4 OpenMP threads

MPI task timing breakdown:
Section |  min time  |  avg time  |  max time  |%varavg| %total
---------------------------------------------------------------
Pair    | 1958.8     | 1962.6     | 1967.6     |   7.2 | 77.99
Neigh   | 155.74     | 156.86     | 157.6      |   5.9 |  6.23
Comm    | 121.25     | 126.35     | 129.43     |  28.9 |  5.02
Output  | 3.5386     | 3.7691     | 4.0673     |  10.1 |  0.15
Modify  | 256.24     | 256.7      | 257.11     |   1.9 | 10.20
Other   |            | 10.28      |            |       |  0.41

Nlocal:          91125 ave       91431 max       90854 min
Histogram: 2 0 0 0 0 0 0 0 1 1
Nghost:        35966.8 ave       36117 max       35777 min
Histogram: 1 0 0 0 1 0 0 0 1 1
Neighs:    3.34292e+06 ave 3.37103e+06 max 3.31592e+06 min
Histogram: 1 0 1 0 0 0 0 1 0 1

Total # of neighbors = 13371665
Ave neighs/atom = 36.684952
Neighbor list builds = 1259
Dangerous builds = 369

# write output data
write_data Ni_5KeV_Strained.lmp
System init for write_data ...
No /omp style for force computation currently active

# end of simulation
print "Tensile test simulation completed."
Tensile test simulation completed.


Total wall time: 0:42:01
