LAMMPS (2 Aug 2023 - Update 2)
OMP_NUM_THREADS environment is not set. Defaulting to 1 thread. (src/comm.cpp:98)
  using 1 OpenMP thread(s) per MPI task
Loaded 1 plugins from C:\Users\Ratish Panda\AppData\Local\LAMMPS 64-bit 2Aug2023-MSMPI with Python\plugins
# Tensile Test Simulation in LAMMPS

# Initialize
units metal
boundary p p p
atom_style atomic

# Specify the number of OpenMP threads
package omp 4
set 4 OpenMP thread(s) per MPI task
using multi-threaded neighbor list subroutines

# Read data file (output from previous steps)
read_data Ni_Unirradiated_20ps_relaxed.lmp
Reading data file ...
  orthogonal box = (-0.055126206 -0.055126206 -0.055126206) to (158.45513 158.45513 158.45513)
  2 by 1 by 2 MPI processor grid
  reading atoms ...
  364500 atoms
  reading velocities ...
  364500 velocities
  read_data CPU = 3.184 seconds

# Define potential (EAM potential for Nickel)
pair_style eam/alloy
pair_coeff * * FeNiCrCoCu-heafixed.setfl Ni

neighbor	 1 bin
neigh_modify every 1 delay 0 check yes

#--------------------------
# Store final cell length for strain calculations
variable tmp equal "lx"
variable L0 equal ${tmp}
variable L0 equal 158.510252411235
print "Initial Length, L0: ${L0}"
Initial Length, L0: 158.510252411235

reset_timestep 0
timestep 0.01

fix 1 all npt temp 300 300 1 x 0 0 1 y 0 0 1 drag 1
variable srate equal 2.0e9
variable srate1 equal "v_srate / 1.0e12" # adjusting strain rate unit from per second to per picosecond
fix 2 all deform 1 z erate ${srate1} units box remap x
fix 2 all deform 1 z erate 0.002 units box remap x

# Output strain and stress info to file
# for units metal, pressure is in [bars] = 100 [kPa] = 1/10000 [GPa]
# p2, p3, p4 are in GPa
variable strain equal "(lz - v_L0)/v_L0"
variable p1 equal "v_strain"
variable p2 equal "-pxx/10000"
variable p3 equal "-pyy/10000"
variable p4 equal "-pzz/10000"
fix def1 all print 10 "${p1} ${p2} ${p3} ${p4}" file Ni_Tensile_Unirradiated.def1.txt screen no

# dumping data
dump 1 all custom 1000 dump.Ni_Tensile_Unirradiated_*.dump id type x y z
dump_modify 1 sort id

# Display thermo
thermo 100
thermo_style custom time step v_strain temp v_p2 v_p3 v_p4 ke pe press

# run tensile test for 100 ps
run 10000
No /omp style for force computation currently active
Neighbor list info ...
  update: every = 1 steps, delay = 0 steps, check = yes
  max neighbors/atom: 2000, page size: 100000
  master list distance cutoff = 6.80375
  ghost atom cutoff = 6.80375
  binsize = 3.401875, bins = 47 47 47
  1 neighbor lists, perpetual/occasional/extra = 1 0 0
  (1) pair eam/alloy, perpetual
      attributes: half, newton on, omp
      pair build: half/bin/atomonly/newton/omp
      stencil: half/bin/3d
      bin: standard
Per MPI rank memory allocation (min/avg/max) = 65.61 | 65.61 | 65.61 Mbytes
     Time         Step        v_strain         Temp           v_p2           v_p3           v_p4          KinEng         PotEng         Press     
 0                      0   2.3309673e-15  300.0001       0.12060546    -0.462941       0.34234714     14134.563     -1622014.8     -0.038668482  
 1                    100   0.002          299.75443     -0.007678226    0.0029175607   0.74284923     14122.988     -1621973.8     -2460.2952    
 2                    200   0.004          300.36646      0.0032229086  -0.00056277705  1.0616892      14151.824     -1621946.7     -3547.8312    
 3                    300   0.006          300.43689      0.00039390191  0.0020790763   1.3967004      14155.142     -1621902.5     -4663.9112    
 4                    400   0.008          300.36662      0.001117415    5.5158152e-05  1.7518233      14151.831     -1621841.8     -5843.3194    
 5                    500   0.01           300.33398     -0.00012979638  0.00032035424  2.1249757      14150.293     -1621762.6     -7083.8874    
 6                    600   0.012          300.32753      0.00039964169 -3.2403618e-05  2.5147661      14149.99      -1621664.7     -8383.7777    
 7                    700   0.014          300.32084      0.00043665102  0.00026960444  2.9181979      14149.674     -1621547       -9729.6806    
 8                    800   0.016          300.31346      0.00039779417  0.00034051053  3.3326352      14149.327     -1621409.2     -11111.245    
 9                    900   0.018          300.30707      0.00039859918  0.00022259187  3.7555341      14149.026     -1621250.8     -12520.518    
 10                  1000   0.02           300.29957      0.00043437406  0.00016904067  4.1835157      14148.672     -1621071.4     -13947.064    
 11                  1100   0.022          300.28827      0.00047218461  0.00018300294  4.6123012      14148.14      -1620870.8     -15376.521    
 12                  1200   0.024          300.27415      0.00049803655  0.00016489019  5.0389711      14147.475     -1620648.9     -16798.78     
 13                  1300   0.026          300.25674      0.00056056074  0.00011740195  5.4602848      14146.654     -1620405.8     -18203.209    
 14                  1400   0.028          300.23046      0.00067372867  3.0238568e-05  5.8717113      14145.416     -1620141.5     -19574.718    
 15                  1500   0.03           300.19403      0.00088875203 -7.0325826e-05  6.2686107      14143.7       -1619856.1     -20898.097    
 16                  1600   0.032          300.13784      0.0013321695  -0.00030845872  6.6439186      14141.052     -1619549.6     -22149.808    
 17                  1700   0.034          300.04106      0.0028973735  -0.0010979441   6.9832269      14136.493     -1619221.2     -23283.421    
 18                  1800   0.036          299.83895      0.011034115   -0.0053548465   7.2457272      14126.97      -1618868.3     -24171.355    
 19                  1900   0.038          299.42753      0.025904326   -0.013468721    7.3226159      14107.586     -1618489.6     -24450.172    
 20                  2000   0.04           299.64952      0.0035952818  -0.0010918053   7.4709396      14118.045     -1618120       -24911.477    
 21                  2100   0.042          300.04885      0.0017292564  -0.0003617432   7.7466312      14136.859     -1617755.9     -25826.662    
 22                  2200   0.044          300.17065      0.0011004823  -0.00016713268  8.0313955      14142.598     -1617381.7     -26774.429    
 23                  2300   0.046          300.14708      0.00070487981 -8.655524e-06   8.3108489      14141.488     -1616995.8     -27705.15     
 24                  2400   0.048          300.12074      0.00056779309  6.6481279e-06  8.5848252      14140.247     -1616598.1     -28617.999    
 25                  2500   0.05           300.12394      0.00049113544  2.8317626e-05  8.8557483      14140.397     -1616188.4     -29520.893    
 26                  2600   0.052          300.13526      0.00044977532  3.8664558e-05  9.1216619      14140.931     -1615766.8     -30407.168    
 27                  2700   0.054          300.14169      0.00042215772  5.1861885e-05  9.3880189      14141.234     -1615333.4     -31294.976    
 28                  2800   0.056          300.14309      0.00040113318  5.7930626e-05  9.6569319      14141.3       -1614887.8     -32191.303    
 29                  2900   0.058          300.14346      0.00037512656  5.7647369e-05  9.9277235      14141.317     -1614430       -33093.854    
 30                  3000   0.06           300.14435      0.00036496798  6.6550641e-05  10.19994       14141.359     -1613959.9     -34001.238    
 31                  3100   0.062          300.14444      0.00034671661  6.9983258e-05  10.473061      14141.363     -1613477.4     -34911.593    
 32                  3200   0.064          300.14441      0.00033036098  6.8583996e-05  10.746769      14141.362     -1612982.4     -35823.894    
 33                  3300   0.066          300.14446      0.00032754334  7.521964e-05   11.020746      14141.364     -1612475       -36737.161    
 34                  3400   0.068          300.14383      0.00031345369  7.61137e-05    11.294728      14141.335     -1611955.1     -37650.391    
 35                  3500   0.07           300.14258      0.0003039447   7.5237633e-05  11.568466      14141.276     -1611422.7     -38562.817    
 36                  3600   0.072          300.14191      0.00030199211  8.2297721e-05  11.84172       14141.244     -1610877.9     -39473.68     
 37                  3700   0.074          300.14047      0.00029416996  7.570569e-05   12.114314      14141.176     -1610320.6     -40382.28     
 38                  3800   0.076          300.13858      0.00028387061  7.1164195e-05  12.386028      14141.087     -1609751       -41287.942    
 39                  3900   0.078          300.13769      0.00028776272  7.8292763e-05  12.656655      14141.045     -1609169.1     -42190.07     
 40                  4000   0.08           300.13527      0.00027547514  6.7593236e-05  12.926038      14140.931     -1608574.8     -43087.936    
 41                  4100   0.082          300.13381      0.00027280638  7.3415436e-05  13.193976      14140.862     -1607968.5     -43981.075    
 42                  4200   0.084          300.13121      0.00026883107  6.7909989e-05  13.460326      14140.74      -1607349.9     -44868.876    
 43                  4300   0.086          300.12891      0.000268793    6.5391655e-05  13.724835      14140.632     -1606719.3     -45750.564    
 44                  4400   0.088          300.12697      0.00026930342  6.3872941e-05  13.987297      14140.54      -1606076.8     -46625.432    
 45                  4500   0.09           300.12423      0.00026334658  5.8361653e-05  14.247556      14140.411     -1605422.5     -47492.926    
 46                  4600   0.092          300.12154      0.00026905863  5.9439485e-05  14.505513      14140.285     -1604756.4     -48352.806    
 47                  4700   0.094          300.11893      0.00026899003  5.7888655e-05  14.763363      14140.162     -1604078.6     -49212.299    
 48                  4800   0.096          300.11525      0.00026069621  4.5482723e-05  15.022183      14139.988     -1603389.2     -50074.965    
 49                  4900   0.098          300.11197      0.00026451837  4.4357716e-05  15.281732      14139.834     -1602688       -50940.135    
 50                  5000   0.1            300.10863      0.00026320341  3.8308445e-05  15.541748      14139.676     -1601975.1     -51806.831    
 51                  5100   0.102          300.10534      0.0002742622   4.0153549e-05  15.802061      14139.521     -1601250.4     -52674.586    
 52                  5200   0.104          300.10108      0.00027135246  3.0141814e-05  16.06239       14139.32      -1600513.9     -53542.305    
 53                  5300   0.106          300.09699      0.00027502723  2.3327611e-05  16.322541      14139.128     -1599765.6     -54409.465    
 54                  5400   0.108          300.09206      0.00027151808  1.4484081e-05  16.582149      14138.895     -1599005.5     -55274.783    
 55                  5500   0.11           300.08807      0.00027446878  7.565559e-06   16.841065      14138.708     -1598233.7     -56137.824    
 56                  5600   0.112          300.08327      0.00028737412  3.6081169e-06  17.099003      14138.481     -1597450.2     -56997.645    
 57                  5700   0.114          300.07785      0.0002815944  -1.2498405e-05  17.355534      14138.226     -1596655       -57852.677    
 58                  5800   0.116          300.0729       0.00029053574 -1.6163136e-05  17.610506      14137.993     -1595848.2     -58702.601    
 59                  5900   0.118          300.06736      0.00030194883 -2.4569351e-05  17.863485      14137.732     -1595029.8     -59545.875    
 60                  6000   0.12           300.06179      0.00030424455 -3.5864336e-05  18.114183      14137.469     -1594200       -60381.504    
 61                  6100   0.122          300.05548      0.00030910028 -4.750132e-05   18.362196      14137.172     -1593358.9     -61208.191    
 62                  6200   0.124          300.04917      0.00031699348 -5.7211526e-05  18.607259      14136.875     -1592506.5     -62025.063    
 63                  6300   0.126          300.04284      0.0003287218  -6.5096619e-05  18.848897      14136.576     -1591643.1     -62830.536    
 64                  6400   0.128          300.0357       0.00033036369 -7.8181419e-05  19.086687      14136.24      -1590768.7     -63623.13     
 65                  6500   0.13           300.0286       0.00033888485 -0.0001000868   19.32043       14135.906     -1589883.6     -64402.228    
 66                  6600   0.132          300.02152      0.00035174373 -0.00010842492  19.549481      14135.572     -1588987.8     -65165.746    
 67                  6700   0.134          300.01417      0.00036222155 -0.0001175409   19.773592      14135.226     -1588081.8     -65912.789    
 68                  6800   0.136          300.00658      0.00038093041 -0.00013246623  19.992296      14134.868     -1587165.6     -66641.815    
 69                  6900   0.138          299.99795      0.00039015525 -0.00015435529  20.205154      14134.461     -1586239.4     -67351.298    
 70                  7000   0.14           299.98973      0.0004042282  -0.00017428646  20.411709      14134.074     -1585303.6     -68039.798    
 71                  7100   0.142          299.98176      0.00042433903 -0.00019253219  20.611713      14133.699     -1584358.5     -68706.482    
 72                  7200   0.144          299.97325      0.0004331444  -0.00020104618  20.804572      14133.298     -1583404.4     -69349.347    
 73                  7300   0.146          299.96441      0.0004533774  -0.00022354498  20.990103      14132.881     -1582441.5     -69967.777    
 74                  7400   0.148          299.95504      0.000474464   -0.00024937885  21.167866      14132.44      -1581470.1     -70560.302    
 75                  7500   0.15           299.94632      0.00049829933 -0.00027058031  21.337648      14132.029     -1580490.8     -71126.253    
 76                  7600   0.152          299.93686      0.00051612962 -0.00029278116  21.499204      14131.583     -1579503.8     -71664.757    
 77                  7700   0.154          299.92806      0.00054620456 -0.00031447619  21.652323      14131.169     -1578509.5     -72175.183    
 78                  7800   0.156          299.91888      0.00057534987 -0.00034420238  21.797023      14130.736     -1577508.3     -72657.513    
 79                  7900   0.158          299.90987      0.00061178477 -0.00038895685  21.933243      14130.312     -1576500.6     -73111.553    
 80                  8000   0.16           299.90055      0.00062997055 -0.0004076037   22.060895      14129.872     -1575486.8     -73537.057    
 81                  8100   0.162          299.89243      0.00066381283 -0.0004277686   22.180392      14129.49      -1574467.3     -73935.426    
 82                  8200   0.164          299.88369      0.00070357107 -0.00046702586  22.29192       14129.078     -1573442.4     -74307.188    
 83                  8300   0.166          299.87515      0.00073540909 -0.0005018737   22.397518      14128.676     -1572412.6     -74659.172    
 84                  8400   0.168          299.86892      0.0007999039  -0.000542964    22.503167      14128.382     -1571378.1     -75011.413    
 85                  8500   0.17           299.86255      0.00083553024 -0.00057151811  22.609871      14128.082     -1570338.8     -75367.115    
 86                  8600   0.172          299.85637      0.00089921549 -0.0006222651   22.718332      14127.791     -1569294.7     -75728.695    
 87                  8700   0.174          299.85043      0.00094300281 -0.00065552255  22.829248      14127.511     -1568245.8     -76098.451    
 88                  8800   0.176          299.84424      0.00097802518 -0.00068224956  22.943267      14127.219     -1567191.9     -76478.544    
 89                  8900   0.178          299.8383       0.001116523   -0.00078251651  23.060665      14126.94      -1566133       -76869.996    
 90                  9000   0.18           299.82285      0.0013298802  -0.00093983267  23.176086      14126.212     -1565068.5     -77254.921    
 91                  9100   0.182          299.79782      0.0016248638  -0.0011568285   23.28552       14125.033     -1563998.1     -77619.958    
 92                  9200   0.184          299.76641      0.0022749961  -0.0016524466   23.384573      14123.552     -1562922.1     -77950.651    
 93                  9300   0.186          299.7107       0.0034069534  -0.0025173805   23.458318      14120.928     -1561839.9     -78197.36     
 94                  9400   0.188          299.62094      0.0055422506  -0.004152744    23.476052      14116.699     -1560752.1     -78258.138    
 95                  9500   0.19           299.43612      0.012886181   -0.0097335264   23.364004      14107.991     -1559659       -77890.521    
 96                  9600   0.192          341.5321       3.0992087     -1.1466089      21.055996      16091.351     -1561150.3     -76695.319    
 97                  9700   0.194          498.44624      1.3867997     -0.66312793     8.1501339      23484.391     -1575487.8     -29579.352    
 98                  9800   0.196          528.67971      0.074177143   -0.048702183    3.3701225      24908.847     -1579360.8     -11318.658    
 99                  9900   0.198          526.24486      0.0022970484   0.0012517674   2.2895985      24794.128     -1581307.9     -7643.8245    
 100                10000   0.2            512.13794     -0.012742511   -0.0043164148   1.9255582      24129.478     -1582628.9     -6361.6644    
Loop time of 2640.46 on 16 procs for 10000 steps with 364500 atoms

Performance: 3.272 ns/day, 7.335 hours/ns, 3.787 timesteps/s, 1.380 Matom-step/s
101.7% CPU use with 4 MPI tasks x 4 OpenMP threads

MPI task timing breakdown:
Section |  min time  |  avg time  |  max time  |%varavg| %total
---------------------------------------------------------------
Pair    | 2154.5     | 2158.8     | 2161.8     |   6.0 | 81.76
Neigh   | 119.78     | 120.03     | 120.28     |   1.6 |  4.55
Comm    | 102.79     | 106.21     | 110.59     |  28.5 |  4.02
Output  | 2.5797     | 2.9176     | 3.2414     |  14.6 |  0.11
Modify  | 235.66     | 236.07     | 236.43     |   1.9 |  8.94
Other   |            | 16.47      |            |       |  0.62

Nlocal:          91125 ave       91255 max       90820 min
Histogram: 1 0 0 0 0 0 0 0 1 2
Nghost:        46146.2 ave       46279 max       46055 min
Histogram: 1 0 1 0 1 0 0 0 0 1
Neighs:    5.64987e+06 ave 5.68289e+06 max  5.5909e+06 min
Histogram: 1 0 0 0 0 0 1 0 0 2

Total # of neighbors = 22599464
Ave neighs/atom = 62.001273
Neighbor list builds = 843
Dangerous builds = 0

# write output data
write_data Ni_5KeV_Strained.lmp
System init for write_data ...
No /omp style for force computation currently active

# end of simulation
print "Tensile test simulation completed."
Tensile test simulation completed.


Total wall time: 0:44:04
