LAMMPS (2 Aug 2023 - Update 2)
OMP_NUM_THREADS environment is not set. Defaulting to 1 thread. (src/comm.cpp:98)
  using 1 OpenMP thread(s) per MPI task
Loaded 1 plugins from C:\Users\Ratish Panda\AppData\Local\LAMMPS 64-bit 2Aug2023-MSMPI with Python\plugins
# LAMMPS input script for PKA radiation damage in NiCoCrFe at 5 keV
# Establish crystal model, apply 3D PBC, introduce PKA, simulate damage
# Note: PKA is introduced along the XY-axis direction in this simulation

# Initialize
units metal
boundary p p p
atom_style atomic

# Specify the number of OpenMP threads
package omp 4
set 4 OpenMP thread(s) per MPI task
using multi-threaded neighbor list subroutines

# Read relaxed data file (output from relaxation)
read_data NiCoCrFe_relaxed.lmp
Reading data file ...
  orthogonal box = (0.80381162 0.80381162 0.80381162) to (161.64619 161.64619 161.64619)
  2 by 1 by 2 MPI processor grid
  reading atoms ...
  364500 atoms
  reading velocities ...
  364500 velocities
  read_data CPU = 4.551 seconds

# Define potential (EAM potential for Nickel)
pair_style eam/alloy
pair_coeff * * FeNiCrCoCu-heafixed.setfl Ni Co Cr Fe

neighbor	 1 bin
neigh_modify every 1 delay 0 check yes

# Define thermodynamic dump parameters
reset_timestep 0
thermo 100
thermo_style custom time step temp press etotal

# Apply 3D periodic boundary conditions (already applied by 'read_data')
# No need for create_box or create_atoms

# Dump settings for atomic configurations (optional)
# Use if you want to visualize the simulation progress
dump 1 all custom 1000 NiCoCrFe_pka_5kev_*.dump id type x y z
dump_modify 1 sort id

# PKA radiation damage process
# Define PKA properties
variable pka_energy equal 5.0  # PKA energy in keV
variable pka_direction_x equal 1  # PKA direction x-component
variable pka_direction_y equal 1  # PKA direction y-component
variable pka_direction_z equal 0  # PKA direction z-component

# Calculate center of the simulation cell
variable cell_center_x equal lx/2
variable cell_center_y equal ly/2
variable cell_center_z equal lz/2

# Define radius for selecting recoil atom
variable radius equal 5.0 # This encompasses a bunch of central atoms - at least one should be an Fe atom

# Pick a random atom near the center as the recoil atom
region center_sphere sphere ${cell_center_x} ${cell_center_y} ${cell_center_z} ${radius}
region center_sphere sphere 80.4211883806387 ${cell_center_y} ${cell_center_z} ${radius}
region center_sphere sphere 80.4211883806387 80.4211883806387 ${cell_center_z} ${radius}
region center_sphere sphere 80.4211883806387 80.4211883806387 80.4211883806387 ${radius}
region center_sphere sphere 80.4211883806387 80.4211883806387 80.4211883806387 5

# Create a group of atoms within the defined center region
group center_atoms region center_sphere
44 atoms in group center_atoms

# Create a group of Fe atoms
group fe_atoms type 2 # type 2 is Fe
91125 atoms in group fe_atoms

# PKA velocity is determined by mass of Fe atom, which is selected as PKA atom
# Set PKA velocity to 1314 angstroms per picosecond in specified direction
variable pka_velocity equal 1314.0

region select sphere ${cell_center_x} ${cell_center_y} ${cell_center_z} ${radius}
region select sphere 80.4211883806387 ${cell_center_y} ${cell_center_z} ${radius}
region select sphere 80.4211883806387 80.4211883806387 ${cell_center_z} ${radius}
region select sphere 80.4211883806387 80.4211883806387 80.4211883806387 ${radius}
region select sphere 80.4211883806387 80.4211883806387 80.4211883806387 5
group select empty
0 atoms in group select
variable inside equal count(select,select) #there should not be any empty space between select and select (very hard to debug)
variable n loop 400000 # set to 400000, more than number of atoms in sim cell

label jump
variable select index $(random(1,atoms,364500):%.0f)
variable select index 296858
group select id ${select}
group select id 296858
1 atoms in group select
if "${inside} == 0" then     "group select delete"     "variable select delete"     "next n"     "jump SELF jump"
group select delete
variable select delete
next n
jump SELF jump
variable select index $(random(1,atoms,364500):%.0f)
variable select index 201280
group select id ${select}
group select id 201280
1 atoms in group select
if "${inside} == 0" then     "group select delete"     "variable select delete"     "next n"     "jump SELF jump"
group select delete
variable select delete
next n
jump SELF jump
variable select index $(random(1,atoms,364500):%.0f)
variable select index 132091
group select id ${select}
group select id 132091
1 atoms in group select
if "${inside} == 0" then     "group select delete"     "variable select delete"     "next n"     "jump SELF jump"
group select delete
variable select delete
next n
jump SELF jump
variable select index $(random(1,atoms,364500):%.0f)
variable select index 38085
group select id ${select}
group select id 38085
1 atoms in group select
if "${inside} == 0" then     "group select delete"     "variable select delete"     "next n"     "jump SELF jump"
group select delete
variable select delete
next n
jump SELF jump
variable select index $(random(1,atoms,364500):%.0f)
variable select index 263551
group select id ${select}
group select id 263551
1 atoms in group select
if "${inside} == 0" then     "group select delete"     "variable select delete"     "next n"     "jump SELF jump"
group select delete
variable select delete
next n
jump SELF jump
variable select index $(random(1,atoms,364500):%.0f)
variable select index 253872
group select id ${select}
group select id 253872
1 atoms in group select
if "${inside} == 0" then     "group select delete"     "variable select delete"     "next n"     "jump SELF jump"
group select delete
variable select delete
next n
jump SELF jump
variable select index $(random(1,atoms,364500):%.0f)
variable select index 172830
group select id ${select}
group select id 172830
1 atoms in group select
if "${inside} == 0" then     "group select delete"     "variable select delete"     "next n"     "jump SELF jump"
group select delete
variable select delete
next n
jump SELF jump
variable select index $(random(1,atoms,364500):%.0f)
variable select index 150260
group select id ${select}
group select id 150260
1 atoms in group select
if "${inside} == 0" then     "group select delete"     "variable select delete"     "next n"     "jump SELF jump"
group select delete
variable select delete
next n
jump SELF jump
variable select index $(random(1,atoms,364500):%.0f)
variable select index 301592
group select id ${select}
group select id 301592
1 atoms in group select
if "${inside} == 0" then     "group select delete"     "variable select delete"     "next n"     "jump SELF jump"
group select delete
variable select delete
next n
jump SELF jump
variable select index $(random(1,atoms,364500):%.0f)
variable select index 51471
group select id ${select}
group select id 51471
1 atoms in group select
if "${inside} == 0" then     "group select delete"     "variable select delete"     "next n"     "jump SELF jump"
group select delete
variable select delete
next n
jump SELF jump
variable select index $(random(1,atoms,364500):%.0f)
variable select index 279840
group select id ${select}
group select id 279840
1 atoms in group select
if "${inside} == 0" then     "group select delete"     "variable select delete"     "next n"     "jump SELF jump"
group select delete
variable select delete
next n
jump SELF jump
variable select index $(random(1,atoms,364500):%.0f)
variable select index 209519
group select id ${select}
group select id 209519
1 atoms in group select
if "${inside} == 0" then     "group select delete"     "variable select delete"     "next n"     "jump SELF jump"
group select delete
variable select delete
next n
jump SELF jump
variable select index $(random(1,atoms,364500):%.0f)
variable select index 292929
group select id ${select}
group select id 292929
1 atoms in group select
if "${inside} == 0" then     "group select delete"     "variable select delete"     "next n"     "jump SELF jump"
group select delete
variable select delete
next n
jump SELF jump
variable select index $(random(1,atoms,364500):%.0f)
variable select index 338241
group select id ${select}
group select id 338241
1 atoms in group select
if "${inside} == 0" then     "group select delete"     "variable select delete"     "next n"     "jump SELF jump"
group select delete
variable select delete
next n
jump SELF jump
variable select index $(random(1,atoms,364500):%.0f)
variable select index 277311
group select id ${select}
group select id 277311
1 atoms in group select
if "${inside} == 0" then     "group select delete"     "variable select delete"     "next n"     "jump SELF jump"
group select delete
variable select delete
next n
jump SELF jump
variable select index $(random(1,atoms,364500):%.0f)
variable select index 192326
group select id ${select}
group select id 192326
1 atoms in group select
if "${inside} == 0" then     "group select delete"     "variable select delete"     "next n"     "jump SELF jump"
group select delete
variable select delete
next n
jump SELF jump
variable select index $(random(1,atoms,364500):%.0f)
variable select index 354544
group select id ${select}
group select id 354544
1 atoms in group select
if "${inside} == 0" then     "group select delete"     "variable select delete"     "next n"     "jump SELF jump"
group select delete
variable select delete
next n
jump SELF jump
variable select index $(random(1,atoms,364500):%.0f)
variable select index 196152
group select id ${select}
group select id 196152
1 atoms in group select
if "${inside} == 0" then     "group select delete"     "variable select delete"     "next n"     "jump SELF jump"
group select delete
variable select delete
next n
jump SELF jump
variable select index $(random(1,atoms,364500):%.0f)
variable select index 107038
group select id ${select}
group select id 107038
1 atoms in group select
if "${inside} == 0" then     "group select delete"     "variable select delete"     "next n"     "jump SELF jump"
group select delete
variable select delete
next n
jump SELF jump
variable select index $(random(1,atoms,364500):%.0f)
variable select index 301559
group select id ${select}
group select id 301559
1 atoms in group select
if "${inside} == 0" then     "group select delete"     "variable select delete"     "next n"     "jump SELF jump"
group select delete
variable select delete
next n
jump SELF jump
variable select index $(random(1,atoms,364500):%.0f)
variable select index 239046
group select id ${select}
group select id 239046
1 atoms in group select
if "${inside} == 0" then     "group select delete"     "variable select delete"     "next n"     "jump SELF jump"
group select delete
variable select delete
next n
jump SELF jump
variable select index $(random(1,atoms,364500):%.0f)
variable select index 196791
group select id ${select}
group select id 196791
1 atoms in group select
if "${inside} == 0" then     "group select delete"     "variable select delete"     "next n"     "jump SELF jump"
group select delete
variable select delete
next n
jump SELF jump
variable select index $(random(1,atoms,364500):%.0f)
variable select index 98039
group select id ${select}
group select id 98039
1 atoms in group select
if "${inside} == 0" then     "group select delete"     "variable select delete"     "next n"     "jump SELF jump"
group select delete
variable select delete
next n
jump SELF jump
variable select index $(random(1,atoms,364500):%.0f)
variable select index 46037
group select id ${select}
group select id 46037
1 atoms in group select
if "${inside} == 0" then     "group select delete"     "variable select delete"     "next n"     "jump SELF jump"
group select delete
variable select delete
next n
jump SELF jump
variable select index $(random(1,atoms,364500):%.0f)
variable select index 280931
group select id ${select}
group select id 280931
1 atoms in group select
if "${inside} == 0" then     "group select delete"     "variable select delete"     "next n"     "jump SELF jump"
group select delete
variable select delete
next n
jump SELF jump
variable select index $(random(1,atoms,364500):%.0f)
variable select index 122278
group select id ${select}
group select id 122278
1 atoms in group select
if "${inside} == 0" then     "group select delete"     "variable select delete"     "next n"     "jump SELF jump"
group select delete
variable select delete
next n
jump SELF jump
variable select index $(random(1,atoms,364500):%.0f)
variable select index 251282
group select id ${select}
group select id 251282
1 atoms in group select
if "${inside} == 0" then     "group select delete"     "variable select delete"     "next n"     "jump SELF jump"
group select delete
variable select delete
next n
jump SELF jump
variable select index $(random(1,atoms,364500):%.0f)
variable select index 190405
group select id ${select}
group select id 190405
1 atoms in group select
if "${inside} == 0" then     "group select delete"     "variable select delete"     "next n"     "jump SELF jump"
group select delete
variable select delete
next n
jump SELF jump
variable select index $(random(1,atoms,364500):%.0f)
variable select index 139996
group select id ${select}
group select id 139996
1 atoms in group select
if "${inside} == 0" then     "group select delete"     "variable select delete"     "next n"     "jump SELF jump"
group select delete
variable select delete
next n
jump SELF jump
variable select index $(random(1,atoms,364500):%.0f)
variable select index 137051
group select id ${select}
group select id 137051
1 atoms in group select
if "${inside} == 0" then     "group select delete"     "variable select delete"     "next n"     "jump SELF jump"
group select delete
variable select delete
next n
jump SELF jump
variable select index $(random(1,atoms,364500):%.0f)
variable select index 220528
group select id ${select}
group select id 220528
1 atoms in group select
if "${inside} == 0" then     "group select delete"     "variable select delete"     "next n"     "jump SELF jump"
group select delete
variable select delete
next n
jump SELF jump
variable select index $(random(1,atoms,364500):%.0f)
variable select index 39777
group select id ${select}
group select id 39777
1 atoms in group select
if "${inside} == 0" then     "group select delete"     "variable select delete"     "next n"     "jump SELF jump"
group select delete
variable select delete
next n
jump SELF jump
variable select index $(random(1,atoms,364500):%.0f)
variable select index 200143
group select id ${select}
group select id 200143
1 atoms in group select
if "${inside} == 0" then     "group select delete"     "variable select delete"     "next n"     "jump SELF jump"
group select delete
variable select delete
next n
jump SELF jump
variable select index $(random(1,atoms,364500):%.0f)
variable select index 139841
group select id ${select}
group select id 139841
1 atoms in group select
if "${inside} == 0" then     "group select delete"     "variable select delete"     "next n"     "jump SELF jump"
group select delete
variable select delete
next n
jump SELF jump
variable select index $(random(1,atoms,364500):%.0f)
variable select index 22448
group select id ${select}
group select id 22448
1 atoms in group select
if "${inside} == 0" then     "group select delete"     "variable select delete"     "next n"     "jump SELF jump"
group select delete
variable select delete
next n
jump SELF jump
variable select index $(random(1,atoms,364500):%.0f)
variable select index 204592
group select id ${select}
group select id 204592
1 atoms in group select
if "${inside} == 0" then     "group select delete"     "variable select delete"     "next n"     "jump SELF jump"
group select delete
variable select delete
next n
jump SELF jump
variable select index $(random(1,atoms,364500):%.0f)
variable select index 109485
group select id ${select}
group select id 109485
1 atoms in group select
if "${inside} == 0" then     "group select delete"     "variable select delete"     "next n"     "jump SELF jump"
group select delete
variable select delete
next n
jump SELF jump
variable select index $(random(1,atoms,364500):%.0f)
variable select index 98450
group select id ${select}
group select id 98450
1 atoms in group select
if "${inside} == 0" then     "group select delete"     "variable select delete"     "next n"     "jump SELF jump"
group select delete
variable select delete
next n
jump SELF jump
variable select index $(random(1,atoms,364500):%.0f)
variable select index 114092
group select id ${select}
group select id 114092
1 atoms in group select
if "${inside} == 0" then     "group select delete"     "variable select delete"     "next n"     "jump SELF jump"
group select delete
variable select delete
next n
jump SELF jump
variable select index $(random(1,atoms,364500):%.0f)
variable select index 334052
group select id ${select}
group select id 334052
1 atoms in group select
if "${inside} == 0" then     "group select delete"     "variable select delete"     "next n"     "jump SELF jump"
group select delete
variable select delete
next n
jump SELF jump
variable select index $(random(1,atoms,364500):%.0f)
variable select index 184114
group select id ${select}
group select id 184114
1 atoms in group select
if "${inside} == 0" then     "group select delete"     "variable select delete"     "next n"     "jump SELF jump"
group select delete
variable select delete
next n
jump SELF jump
variable select index $(random(1,atoms,364500):%.0f)
variable select index 14806
group select id ${select}
group select id 14806
1 atoms in group select
if "${inside} == 0" then     "group select delete"     "variable select delete"     "next n"     "jump SELF jump"
group select delete
variable select delete
next n
jump SELF jump
variable select index $(random(1,atoms,364500):%.0f)
variable select index 8726
group select id ${select}
group select id 8726
1 atoms in group select
if "${inside} == 0" then     "group select delete"     "variable select delete"     "next n"     "jump SELF jump"
group select delete
variable select delete
next n
jump SELF jump
variable select index $(random(1,atoms,364500):%.0f)
variable select index 340185
group select id ${select}
group select id 340185
1 atoms in group select
if "${inside} == 0" then     "group select delete"     "variable select delete"     "next n"     "jump SELF jump"
group select delete
variable select delete
next n
jump SELF jump
variable select index $(random(1,atoms,364500):%.0f)
variable select index 76793
group select id ${select}
group select id 76793
1 atoms in group select
if "${inside} == 0" then     "group select delete"     "variable select delete"     "next n"     "jump SELF jump"
group select delete
variable select delete
next n
jump SELF jump
variable select index $(random(1,atoms,364500):%.0f)
variable select index 66608
group select id ${select}
group select id 66608
1 atoms in group select
if "${inside} == 0" then     "group select delete"     "variable select delete"     "next n"     "jump SELF jump"
group select delete
variable select delete
next n
jump SELF jump
variable select index $(random(1,atoms,364500):%.0f)
variable select index 20972
group select id ${select}
group select id 20972
1 atoms in group select
if "${inside} == 0" then     "group select delete"     "variable select delete"     "next n"     "jump SELF jump"
group select delete
variable select delete
next n
jump SELF jump
variable select index $(random(1,atoms,364500):%.0f)
variable select index 244687
group select id ${select}
group select id 244687
1 atoms in group select
if "${inside} == 0" then     "group select delete"     "variable select delete"     "next n"     "jump SELF jump"
group select delete
variable select delete
next n
jump SELF jump
variable select index $(random(1,atoms,364500):%.0f)
variable select index 356198
group select id ${select}
group select id 356198
1 atoms in group select
if "${inside} == 0" then     "group select delete"     "variable select delete"     "next n"     "jump SELF jump"
group select delete
variable select delete
next n
jump SELF jump
variable select index $(random(1,atoms,364500):%.0f)
variable select index 167189
group select id ${select}
group select id 167189
1 atoms in group select
if "${inside} == 0" then     "group select delete"     "variable select delete"     "next n"     "jump SELF jump"
group select delete
variable select delete
next n
jump SELF jump
variable select index $(random(1,atoms,364500):%.0f)
variable select index 349952
group select id ${select}
group select id 349952
1 atoms in group select
if "${inside} == 0" then     "group select delete"     "variable select delete"     "next n"     "jump SELF jump"
group select delete
variable select delete
next n
jump SELF jump
variable select index $(random(1,atoms,364500):%.0f)
variable select index 318419
group select id ${select}
group select id 318419
1 atoms in group select
if "${inside} == 0" then     "group select delete"     "variable select delete"     "next n"     "jump SELF jump"
group select delete
variable select delete
next n
jump SELF jump
variable select index $(random(1,atoms,364500):%.0f)
variable select index 224029
group select id ${select}
group select id 224029
1 atoms in group select
if "${inside} == 0" then     "group select delete"     "variable select delete"     "next n"     "jump SELF jump"
group select delete
variable select delete
next n
jump SELF jump
variable select index $(random(1,atoms,364500):%.0f)
variable select index 214595
group select id ${select}
group select id 214595
1 atoms in group select
if "${inside} == 0" then     "group select delete"     "variable select delete"     "next n"     "jump SELF jump"
group select delete
variable select delete
next n
jump SELF jump
variable select index $(random(1,atoms,364500):%.0f)
variable select index 17925
group select id ${select}
group select id 17925
1 atoms in group select
if "${inside} == 0" then     "group select delete"     "variable select delete"     "next n"     "jump SELF jump"
group select delete
variable select delete
next n
jump SELF jump
variable select index $(random(1,atoms,364500):%.0f)
variable select index 106171
group select id ${select}
group select id 106171
1 atoms in group select
if "${inside} == 0" then     "group select delete"     "variable select delete"     "next n"     "jump SELF jump"
group select delete
variable select delete
next n
jump SELF jump
variable select index $(random(1,atoms,364500):%.0f)
variable select index 24786
group select id ${select}
group select id 24786
1 atoms in group select
if "${inside} == 0" then     "group select delete"     "variable select delete"     "next n"     "jump SELF jump"
group select delete
variable select delete
next n
jump SELF jump
variable select index $(random(1,atoms,364500):%.0f)
variable select index 126804
group select id ${select}
group select id 126804
1 atoms in group select
if "${inside} == 0" then     "group select delete"     "variable select delete"     "next n"     "jump SELF jump"
group select delete
variable select delete
next n
jump SELF jump
variable select index $(random(1,atoms,364500):%.0f)
variable select index 346543
group select id ${select}
group select id 346543
1 atoms in group select
if "${inside} == 0" then     "group select delete"     "variable select delete"     "next n"     "jump SELF jump"
group select delete
variable select delete
next n
jump SELF jump
variable select index $(random(1,atoms,364500):%.0f)
variable select index 352807
group select id ${select}
group select id 352807
1 atoms in group select
if "${inside} == 0" then     "group select delete"     "variable select delete"     "next n"     "jump SELF jump"
group select delete
variable select delete
next n
jump SELF jump
variable select index $(random(1,atoms,364500):%.0f)
variable select index 60672
group select id ${select}
group select id 60672
1 atoms in group select
if "${inside} == 0" then     "group select delete"     "variable select delete"     "next n"     "jump SELF jump"
group select delete
variable select delete
next n
jump SELF jump
variable select index $(random(1,atoms,364500):%.0f)
variable select index 346740
group select id ${select}
group select id 346740
1 atoms in group select
if "${inside} == 0" then     "group select delete"     "variable select delete"     "next n"     "jump SELF jump"
group select delete
variable select delete
next n
jump SELF jump
variable select index $(random(1,atoms,364500):%.0f)
variable select index 303166
group select id ${select}
group select id 303166
1 atoms in group select
if "${inside} == 0" then     "group select delete"     "variable select delete"     "next n"     "jump SELF jump"
group select delete
variable select delete
next n
jump SELF jump
variable select index $(random(1,atoms,364500):%.0f)
variable select index 9020
group select id ${select}
group select id 9020
1 atoms in group select
if "${inside} == 0" then     "group select delete"     "variable select delete"     "next n"     "jump SELF jump"
group select delete
variable select delete
next n
jump SELF jump
variable select index $(random(1,atoms,364500):%.0f)
variable select index 270250
group select id ${select}
group select id 270250
1 atoms in group select
if "${inside} == 0" then     "group select delete"     "variable select delete"     "next n"     "jump SELF jump"
group select delete
variable select delete
next n
jump SELF jump
variable select index $(random(1,atoms,364500):%.0f)
variable select index 211694
group select id ${select}
group select id 211694
1 atoms in group select
if "${inside} == 0" then     "group select delete"     "variable select delete"     "next n"     "jump SELF jump"
group select delete
variable select delete
next n
jump SELF jump
variable select index $(random(1,atoms,364500):%.0f)
variable select index 121124
group select id ${select}
group select id 121124
1 atoms in group select
if "${inside} == 0" then     "group select delete"     "variable select delete"     "next n"     "jump SELF jump"
group select delete
variable select delete
next n
jump SELF jump
variable select index $(random(1,atoms,364500):%.0f)
variable select index 10323
group select id ${select}
group select id 10323
1 atoms in group select
if "${inside} == 0" then     "group select delete"     "variable select delete"     "next n"     "jump SELF jump"
group select delete
variable select delete
next n
jump SELF jump
variable select index $(random(1,atoms,364500):%.0f)
variable select index 163586
group select id ${select}
group select id 163586
1 atoms in group select
if "${inside} == 0" then     "group select delete"     "variable select delete"     "next n"     "jump SELF jump"
group select delete
variable select delete
next n
jump SELF jump
variable select index $(random(1,atoms,364500):%.0f)
variable select index 1792
group select id ${select}
group select id 1792
1 atoms in group select
if "${inside} == 0" then     "group select delete"     "variable select delete"     "next n"     "jump SELF jump"
group select delete
variable select delete
next n
jump SELF jump
variable select index $(random(1,atoms,364500):%.0f)
variable select index 221899
group select id ${select}
group select id 221899
1 atoms in group select
if "${inside} == 0" then     "group select delete"     "variable select delete"     "next n"     "jump SELF jump"
group select delete
variable select delete
next n
jump SELF jump
variable select index $(random(1,atoms,364500):%.0f)
variable select index 332804
group select id ${select}
group select id 332804
1 atoms in group select
if "${inside} == 0" then     "group select delete"     "variable select delete"     "next n"     "jump SELF jump"
group select delete
variable select delete
next n
jump SELF jump
variable select index $(random(1,atoms,364500):%.0f)
variable select index 241990
group select id ${select}
group select id 241990
1 atoms in group select
if "${inside} == 0" then     "group select delete"     "variable select delete"     "next n"     "jump SELF jump"
group select delete
variable select delete
next n
jump SELF jump
variable select index $(random(1,atoms,364500):%.0f)
variable select index 91264
group select id ${select}
group select id 91264
1 atoms in group select
if "${inside} == 0" then     "group select delete"     "variable select delete"     "next n"     "jump SELF jump"
group select delete
variable select delete
next n
jump SELF jump
variable select index $(random(1,atoms,364500):%.0f)
variable select index 252682
group select id ${select}
group select id 252682
1 atoms in group select
if "${inside} == 0" then     "group select delete"     "variable select delete"     "next n"     "jump SELF jump"
group select delete
variable select delete
next n
jump SELF jump
variable select index $(random(1,atoms,364500):%.0f)
variable select index 309076
group select id ${select}
group select id 309076
1 atoms in group select
if "${inside} == 0" then     "group select delete"     "variable select delete"     "next n"     "jump SELF jump"
group select delete
variable select delete
next n
jump SELF jump
variable select index $(random(1,atoms,364500):%.0f)
variable select index 17288
group select id ${select}
group select id 17288
1 atoms in group select
if "${inside} == 0" then     "group select delete"     "variable select delete"     "next n"     "jump SELF jump"
group select delete
variable select delete
next n
jump SELF jump
variable select index $(random(1,atoms,364500):%.0f)
variable select index 348896
group select id ${select}
group select id 348896
1 atoms in group select
if "${inside} == 0" then     "group select delete"     "variable select delete"     "next n"     "jump SELF jump"
group select delete
variable select delete
next n
jump SELF jump
variable select index $(random(1,atoms,364500):%.0f)
variable select index 24504
group select id ${select}
group select id 24504
1 atoms in group select
if "${inside} == 0" then     "group select delete"     "variable select delete"     "next n"     "jump SELF jump"
group select delete
variable select delete
next n
jump SELF jump
variable select index $(random(1,atoms,364500):%.0f)
variable select index 10118
group select id ${select}
group select id 10118
1 atoms in group select
if "${inside} == 0" then     "group select delete"     "variable select delete"     "next n"     "jump SELF jump"
group select delete
variable select delete
next n
jump SELF jump
variable select index $(random(1,atoms,364500):%.0f)
variable select index 358564
group select id ${select}
group select id 358564
1 atoms in group select
if "${inside} == 0" then     "group select delete"     "variable select delete"     "next n"     "jump SELF jump"
group select delete
variable select delete
next n
jump SELF jump
variable select index $(random(1,atoms,364500):%.0f)
variable select index 296167
group select id ${select}
group select id 296167
1 atoms in group select
if "${inside} == 0" then     "group select delete"     "variable select delete"     "next n"     "jump SELF jump"
group select delete
variable select delete
next n
jump SELF jump
variable select index $(random(1,atoms,364500):%.0f)
variable select index 61766
group select id ${select}
group select id 61766
1 atoms in group select
if "${inside} == 0" then     "group select delete"     "variable select delete"     "next n"     "jump SELF jump"
group select delete
variable select delete
next n
jump SELF jump
variable select index $(random(1,atoms,364500):%.0f)
variable select index 287586
group select id ${select}
group select id 287586
1 atoms in group select
if "${inside} == 0" then     "group select delete"     "variable select delete"     "next n"     "jump SELF jump"
group select delete
variable select delete
next n
jump SELF jump
variable select index $(random(1,atoms,364500):%.0f)
variable select index 85730
group select id ${select}
group select id 85730
1 atoms in group select
if "${inside} == 0" then     "group select delete"     "variable select delete"     "next n"     "jump SELF jump"
group select delete
variable select delete
next n
jump SELF jump
variable select index $(random(1,atoms,364500):%.0f)
variable select index 53870
group select id ${select}
group select id 53870
1 atoms in group select
if "${inside} == 0" then     "group select delete"     "variable select delete"     "next n"     "jump SELF jump"
group select delete
variable select delete
next n
jump SELF jump
variable select index $(random(1,atoms,364500):%.0f)
variable select index 51836
group select id ${select}
group select id 51836
1 atoms in group select
if "${inside} == 0" then     "group select delete"     "variable select delete"     "next n"     "jump SELF jump"
group select delete
variable select delete
next n
jump SELF jump
variable select index $(random(1,atoms,364500):%.0f)
variable select index 159359
group select id ${select}
group select id 159359
1 atoms in group select
if "${inside} == 0" then     "group select delete"     "variable select delete"     "next n"     "jump SELF jump"
group select delete
variable select delete
next n
jump SELF jump
variable select index $(random(1,atoms,364500):%.0f)
variable select index 185816
group select id ${select}
group select id 185816
1 atoms in group select
if "${inside} == 0" then     "group select delete"     "variable select delete"     "next n"     "jump SELF jump"
group select delete
variable select delete
next n
jump SELF jump
variable select index $(random(1,atoms,364500):%.0f)
variable select index 357145
group select id ${select}
group select id 357145
1 atoms in group select
if "${inside} == 0" then     "group select delete"     "variable select delete"     "next n"     "jump SELF jump"
group select delete
variable select delete
next n
jump SELF jump
variable select index $(random(1,atoms,364500):%.0f)
variable select index 326587
group select id ${select}
group select id 326587
1 atoms in group select
if "${inside} == 0" then     "group select delete"     "variable select delete"     "next n"     "jump SELF jump"
group select delete
variable select delete
next n
jump SELF jump
variable select index $(random(1,atoms,364500):%.0f)
variable select index 241611
group select id ${select}
group select id 241611
1 atoms in group select
if "${inside} == 0" then     "group select delete"     "variable select delete"     "next n"     "jump SELF jump"
group select delete
variable select delete
next n
jump SELF jump
variable select index $(random(1,atoms,364500):%.0f)
variable select index 34358
group select id ${select}
group select id 34358
1 atoms in group select
if "${inside} == 0" then     "group select delete"     "variable select delete"     "next n"     "jump SELF jump"
group select delete
variable select delete
next n
jump SELF jump
variable select index $(random(1,atoms,364500):%.0f)
variable select index 191638
group select id ${select}
group select id 191638
1 atoms in group select
if "${inside} == 0" then     "group select delete"     "variable select delete"     "next n"     "jump SELF jump"
group select delete
variable select delete
next n
jump SELF jump
variable select index $(random(1,atoms,364500):%.0f)
variable select index 147393
group select id ${select}
group select id 147393
1 atoms in group select
if "${inside} == 0" then     "group select delete"     "variable select delete"     "next n"     "jump SELF jump"
group select delete
variable select delete
next n
jump SELF jump
variable select index $(random(1,atoms,364500):%.0f)
variable select index 341822
group select id ${select}
group select id 341822
1 atoms in group select
if "${inside} == 0" then     "group select delete"     "variable select delete"     "next n"     "jump SELF jump"
group select delete
variable select delete
next n
jump SELF jump
variable select index $(random(1,atoms,364500):%.0f)
variable select index 51059
group select id ${select}
group select id 51059
1 atoms in group select
if "${inside} == 0" then     "group select delete"     "variable select delete"     "next n"     "jump SELF jump"
group select delete
variable select delete
next n
jump SELF jump
variable select index $(random(1,atoms,364500):%.0f)
variable select index 152143
group select id ${select}
group select id 152143
1 atoms in group select
if "${inside} == 0" then     "group select delete"     "variable select delete"     "next n"     "jump SELF jump"
group select delete
variable select delete
next n
jump SELF jump
variable select index $(random(1,atoms,364500):%.0f)
variable select index 281418
group select id ${select}
group select id 281418
1 atoms in group select
if "${inside} == 0" then     "group select delete"     "variable select delete"     "next n"     "jump SELF jump"
group select delete
variable select delete
next n
jump SELF jump
variable select index $(random(1,atoms,364500):%.0f)
variable select index 104597
group select id ${select}
group select id 104597
1 atoms in group select
if "${inside} == 0" then     "group select delete"     "variable select delete"     "next n"     "jump SELF jump"
group select delete
variable select delete
next n
jump SELF jump
variable select index $(random(1,atoms,364500):%.0f)
variable select index 287688
group select id ${select}
group select id 287688
1 atoms in group select
if "${inside} == 0" then     "group select delete"     "variable select delete"     "next n"     "jump SELF jump"
group select delete
variable select delete
next n
jump SELF jump
variable select index $(random(1,atoms,364500):%.0f)
variable select index 161689
group select id ${select}
group select id 161689
1 atoms in group select
if "${inside} == 0" then     "group select delete"     "variable select delete"     "next n"     "jump SELF jump"
group select delete
variable select delete
next n
jump SELF jump
variable select index $(random(1,atoms,364500):%.0f)
variable select index 115602
group select id ${select}
group select id 115602
1 atoms in group select
if "${inside} == 0" then     "group select delete"     "variable select delete"     "next n"     "jump SELF jump"
group select delete
variable select delete
next n
jump SELF jump
variable select index $(random(1,atoms,364500):%.0f)
variable select index 345247
group select id ${select}
group select id 345247
1 atoms in group select
if "${inside} == 0" then     "group select delete"     "variable select delete"     "next n"     "jump SELF jump"
group select delete
variable select delete
next n
jump SELF jump
variable select index $(random(1,atoms,364500):%.0f)
variable select index 13570
group select id ${select}
group select id 13570
1 atoms in group select
if "${inside} == 0" then     "group select delete"     "variable select delete"     "next n"     "jump SELF jump"
group select delete
variable select delete
next n
jump SELF jump
variable select index $(random(1,atoms,364500):%.0f)
variable select index 57514
group select id ${select}
group select id 57514
1 atoms in group select
if "${inside} == 0" then     "group select delete"     "variable select delete"     "next n"     "jump SELF jump"
group select delete
variable select delete
next n
jump SELF jump
variable select index $(random(1,atoms,364500):%.0f)
variable select index 124415
group select id ${select}
group select id 124415
1 atoms in group select
if "${inside} == 0" then     "group select delete"     "variable select delete"     "next n"     "jump SELF jump"
group select delete
variable select delete
next n
jump SELF jump
variable select index $(random(1,atoms,364500):%.0f)
variable select index 357663
group select id ${select}
group select id 357663
1 atoms in group select
if "${inside} == 0" then     "group select delete"     "variable select delete"     "next n"     "jump SELF jump"
group select delete
variable select delete
next n
jump SELF jump
variable select index $(random(1,atoms,364500):%.0f)
variable select index 32746
group select id ${select}
group select id 32746
1 atoms in group select
if "${inside} == 0" then     "group select delete"     "variable select delete"     "next n"     "jump SELF jump"
group select delete
variable select delete
next n
jump SELF jump
variable select index $(random(1,atoms,364500):%.0f)
variable select index 209741
group select id ${select}
group select id 209741
1 atoms in group select
if "${inside} == 0" then     "group select delete"     "variable select delete"     "next n"     "jump SELF jump"
group select delete
variable select delete
next n
jump SELF jump
variable select index $(random(1,atoms,364500):%.0f)
variable select index 89742
group select id ${select}
group select id 89742
1 atoms in group select
if "${inside} == 0" then     "group select delete"     "variable select delete"     "next n"     "jump SELF jump"
group select delete
variable select delete
next n
jump SELF jump
variable select index $(random(1,atoms,364500):%.0f)
variable select index 155001
group select id ${select}
group select id 155001
1 atoms in group select
if "${inside} == 0" then     "group select delete"     "variable select delete"     "next n"     "jump SELF jump"
group select delete
variable select delete
next n
jump SELF jump
variable select index $(random(1,atoms,364500):%.0f)
variable select index 250699
group select id ${select}
group select id 250699
1 atoms in group select
if "${inside} == 0" then     "group select delete"     "variable select delete"     "next n"     "jump SELF jump"
group select delete
variable select delete
next n
jump SELF jump
variable select index $(random(1,atoms,364500):%.0f)
variable select index 230767
group select id ${select}
group select id 230767
1 atoms in group select
if "${inside} == 0" then     "group select delete"     "variable select delete"     "next n"     "jump SELF jump"
group select delete
variable select delete
next n
jump SELF jump
variable select index $(random(1,atoms,364500):%.0f)
variable select index 301069
group select id ${select}
group select id 301069
1 atoms in group select
if "${inside} == 0" then     "group select delete"     "variable select delete"     "next n"     "jump SELF jump"
group select delete
variable select delete
next n
jump SELF jump
variable select index $(random(1,atoms,364500):%.0f)
variable select index 248153
group select id ${select}
group select id 248153
1 atoms in group select
if "${inside} == 0" then     "group select delete"     "variable select delete"     "next n"     "jump SELF jump"
group select delete
variable select delete
next n
jump SELF jump
variable select index $(random(1,atoms,364500):%.0f)
variable select index 18651
group select id ${select}
group select id 18651
1 atoms in group select
if "${inside} == 0" then     "group select delete"     "variable select delete"     "next n"     "jump SELF jump"
group select delete
variable select delete
next n
jump SELF jump
variable select index $(random(1,atoms,364500):%.0f)
variable select index 324291
group select id ${select}
group select id 324291
1 atoms in group select
if "${inside} == 0" then     "group select delete"     "variable select delete"     "next n"     "jump SELF jump"
group select delete
variable select delete
next n
jump SELF jump
variable select index $(random(1,atoms,364500):%.0f)
variable select index 115694
group select id ${select}
group select id 115694
1 atoms in group select
if "${inside} == 0" then     "group select delete"     "variable select delete"     "next n"     "jump SELF jump"
group select delete
variable select delete
next n
jump SELF jump
variable select index $(random(1,atoms,364500):%.0f)
variable select index 185272
group select id ${select}
group select id 185272
1 atoms in group select
if "${inside} == 0" then     "group select delete"     "variable select delete"     "next n"     "jump SELF jump"
group select delete
variable select delete
next n
jump SELF jump
variable select index $(random(1,atoms,364500):%.0f)
variable select index 192043
group select id ${select}
group select id 192043
1 atoms in group select
if "${inside} == 0" then     "group select delete"     "variable select delete"     "next n"     "jump SELF jump"
group select delete
variable select delete
next n
jump SELF jump
variable select index $(random(1,atoms,364500):%.0f)
variable select index 202279
group select id ${select}
group select id 202279
1 atoms in group select
if "${inside} == 0" then     "group select delete"     "variable select delete"     "next n"     "jump SELF jump"
group select delete
variable select delete
next n
jump SELF jump
variable select index $(random(1,atoms,364500):%.0f)
variable select index 38593
group select id ${select}
group select id 38593
1 atoms in group select
if "${inside} == 0" then     "group select delete"     "variable select delete"     "next n"     "jump SELF jump"
group select delete
variable select delete
next n
jump SELF jump
variable select index $(random(1,atoms,364500):%.0f)
variable select index 364452
group select id ${select}
group select id 364452
1 atoms in group select
if "${inside} == 0" then     "group select delete"     "variable select delete"     "next n"     "jump SELF jump"
group select delete
variable select delete
next n
jump SELF jump
variable select index $(random(1,atoms,364500):%.0f)
variable select index 190348
group select id ${select}
group select id 190348
1 atoms in group select
if "${inside} == 0" then     "group select delete"     "variable select delete"     "next n"     "jump SELF jump"
group select delete
variable select delete
next n
jump SELF jump
variable select index $(random(1,atoms,364500):%.0f)
variable select index 148990
group select id ${select}
group select id 148990
1 atoms in group select
if "${inside} == 0" then     "group select delete"     "variable select delete"     "next n"     "jump SELF jump"
group select delete
variable select delete
next n
jump SELF jump
variable select index $(random(1,atoms,364500):%.0f)
variable select index 155061
group select id ${select}
group select id 155061
1 atoms in group select
if "${inside} == 0" then     "group select delete"     "variable select delete"     "next n"     "jump SELF jump"
group select delete
variable select delete
next n
jump SELF jump
variable select index $(random(1,atoms,364500):%.0f)
variable select index 84580
group select id ${select}
group select id 84580
1 atoms in group select
if "${inside} == 0" then     "group select delete"     "variable select delete"     "next n"     "jump SELF jump"
group select delete
variable select delete
next n
jump SELF jump
variable select index $(random(1,atoms,364500):%.0f)
variable select index 240196
group select id ${select}
group select id 240196
1 atoms in group select
if "${inside} == 0" then     "group select delete"     "variable select delete"     "next n"     "jump SELF jump"
group select delete
variable select delete
next n
jump SELF jump
variable select index $(random(1,atoms,364500):%.0f)
variable select index 128624
group select id ${select}
group select id 128624
1 atoms in group select
if "${inside} == 0" then     "group select delete"     "variable select delete"     "next n"     "jump SELF jump"
group select delete
variable select delete
next n
jump SELF jump
variable select index $(random(1,atoms,364500):%.0f)
variable select index 133535
group select id ${select}
group select id 133535
1 atoms in group select
if "${inside} == 0" then     "group select delete"     "variable select delete"     "next n"     "jump SELF jump"
group select delete
variable select delete
next n
jump SELF jump
variable select index $(random(1,atoms,364500):%.0f)
variable select index 53163
group select id ${select}
group select id 53163
1 atoms in group select
if "${inside} == 0" then     "group select delete"     "variable select delete"     "next n"     "jump SELF jump"
group select delete
variable select delete
next n
jump SELF jump
variable select index $(random(1,atoms,364500):%.0f)
variable select index 213926
group select id ${select}
group select id 213926
1 atoms in group select
if "${inside} == 0" then     "group select delete"     "variable select delete"     "next n"     "jump SELF jump"
group select delete
variable select delete
next n
jump SELF jump
variable select index $(random(1,atoms,364500):%.0f)
variable select index 102024
group select id ${select}
group select id 102024
1 atoms in group select
if "${inside} == 0" then     "group select delete"     "variable select delete"     "next n"     "jump SELF jump"
group select delete
variable select delete
next n
jump SELF jump
variable select index $(random(1,atoms,364500):%.0f)
variable select index 18786
group select id ${select}
group select id 18786
1 atoms in group select
if "${inside} == 0" then     "group select delete"     "variable select delete"     "next n"     "jump SELF jump"
group select delete
variable select delete
next n
jump SELF jump
variable select index $(random(1,atoms,364500):%.0f)
variable select index 246811
group select id ${select}
group select id 246811
1 atoms in group select
if "${inside} == 0" then     "group select delete"     "variable select delete"     "next n"     "jump SELF jump"
group select delete
variable select delete
next n
jump SELF jump
variable select index $(random(1,atoms,364500):%.0f)
variable select index 38923
group select id ${select}
group select id 38923
1 atoms in group select
if "${inside} == 0" then     "group select delete"     "variable select delete"     "next n"     "jump SELF jump"
group select delete
variable select delete
next n
jump SELF jump
variable select index $(random(1,atoms,364500):%.0f)
variable select index 22460
group select id ${select}
group select id 22460
1 atoms in group select
if "${inside} == 0" then     "group select delete"     "variable select delete"     "next n"     "jump SELF jump"
group select delete
variable select delete
next n
jump SELF jump
variable select index $(random(1,atoms,364500):%.0f)
variable select index 340003
group select id ${select}
group select id 340003
1 atoms in group select
if "${inside} == 0" then     "group select delete"     "variable select delete"     "next n"     "jump SELF jump"
group select delete
variable select delete
next n
jump SELF jump
variable select index $(random(1,atoms,364500):%.0f)
variable select index 68820
group select id ${select}
group select id 68820
1 atoms in group select
if "${inside} == 0" then     "group select delete"     "variable select delete"     "next n"     "jump SELF jump"
group select delete
variable select delete
next n
jump SELF jump
variable select index $(random(1,atoms,364500):%.0f)
variable select index 333327
group select id ${select}
group select id 333327
1 atoms in group select
if "${inside} == 0" then     "group select delete"     "variable select delete"     "next n"     "jump SELF jump"
group select delete
variable select delete
next n
jump SELF jump
variable select index $(random(1,atoms,364500):%.0f)
variable select index 196651
group select id ${select}
group select id 196651
1 atoms in group select
if "${inside} == 0" then     "group select delete"     "variable select delete"     "next n"     "jump SELF jump"
group select delete
variable select delete
next n
jump SELF jump
variable select index $(random(1,atoms,364500):%.0f)
variable select index 175767
group select id ${select}
group select id 175767
1 atoms in group select
if "${inside} == 0" then     "group select delete"     "variable select delete"     "next n"     "jump SELF jump"
group select delete
variable select delete
next n
jump SELF jump
variable select index $(random(1,atoms,364500):%.0f)
variable select index 51927
group select id ${select}
group select id 51927
1 atoms in group select
if "${inside} == 0" then     "group select delete"     "variable select delete"     "next n"     "jump SELF jump"
group select delete
variable select delete
next n
jump SELF jump
variable select index $(random(1,atoms,364500):%.0f)
variable select index 12180
group select id ${select}
group select id 12180
1 atoms in group select
if "${inside} == 0" then     "group select delete"     "variable select delete"     "next n"     "jump SELF jump"
group select delete
variable select delete
next n
jump SELF jump
variable select index $(random(1,atoms,364500):%.0f)
variable select index 194290
group select id ${select}
group select id 194290
1 atoms in group select
if "${inside} == 0" then     "group select delete"     "variable select delete"     "next n"     "jump SELF jump"
group select delete
variable select delete
next n
jump SELF jump
variable select index $(random(1,atoms,364500):%.0f)
variable select index 191509
group select id ${select}
group select id 191509
1 atoms in group select
if "${inside} == 0" then     "group select delete"     "variable select delete"     "next n"     "jump SELF jump"
group select delete
variable select delete
next n
jump SELF jump
variable select index $(random(1,atoms,364500):%.0f)
variable select index 105769
group select id ${select}
group select id 105769
1 atoms in group select
if "${inside} == 0" then     "group select delete"     "variable select delete"     "next n"     "jump SELF jump"
group select delete
variable select delete
next n
jump SELF jump
variable select index $(random(1,atoms,364500):%.0f)
variable select index 293447
group select id ${select}
group select id 293447
1 atoms in group select
if "${inside} == 0" then     "group select delete"     "variable select delete"     "next n"     "jump SELF jump"
group select delete
variable select delete
next n
jump SELF jump
variable select index $(random(1,atoms,364500):%.0f)
variable select index 230358
group select id ${select}
group select id 230358
1 atoms in group select
if "${inside} == 0" then     "group select delete"     "variable select delete"     "next n"     "jump SELF jump"
group select delete
variable select delete
next n
jump SELF jump
variable select index $(random(1,atoms,364500):%.0f)
variable select index 81580
group select id ${select}
group select id 81580
1 atoms in group select
if "${inside} == 0" then     "group select delete"     "variable select delete"     "next n"     "jump SELF jump"
group select delete
variable select delete
next n
jump SELF jump
variable select index $(random(1,atoms,364500):%.0f)
variable select index 259804
group select id ${select}
group select id 259804
1 atoms in group select
if "${inside} == 0" then     "group select delete"     "variable select delete"     "next n"     "jump SELF jump"
group select delete
variable select delete
next n
jump SELF jump
variable select index $(random(1,atoms,364500):%.0f)
variable select index 80268
group select id ${select}
group select id 80268
1 atoms in group select
if "${inside} == 0" then     "group select delete"     "variable select delete"     "next n"     "jump SELF jump"
group select delete
variable select delete
next n
jump SELF jump
variable select index $(random(1,atoms,364500):%.0f)
variable select index 158409
group select id ${select}
group select id 158409
1 atoms in group select
if "${inside} == 0" then     "group select delete"     "variable select delete"     "next n"     "jump SELF jump"
group select delete
variable select delete
next n
jump SELF jump
variable select index $(random(1,atoms,364500):%.0f)
variable select index 51989
group select id ${select}
group select id 51989
1 atoms in group select
if "${inside} == 0" then     "group select delete"     "variable select delete"     "next n"     "jump SELF jump"
group select delete
variable select delete
next n
jump SELF jump
variable select index $(random(1,atoms,364500):%.0f)
variable select index 237211
group select id ${select}
group select id 237211
1 atoms in group select
if "${inside} == 0" then     "group select delete"     "variable select delete"     "next n"     "jump SELF jump"
group select delete
variable select delete
next n
jump SELF jump
variable select index $(random(1,atoms,364500):%.0f)
variable select index 83914
group select id ${select}
group select id 83914
1 atoms in group select
if "${inside} == 0" then     "group select delete"     "variable select delete"     "next n"     "jump SELF jump"
group select delete
variable select delete
next n
jump SELF jump
variable select index $(random(1,atoms,364500):%.0f)
variable select index 132179
group select id ${select}
group select id 132179
1 atoms in group select
if "${inside} == 0" then     "group select delete"     "variable select delete"     "next n"     "jump SELF jump"
group select delete
variable select delete
next n
jump SELF jump
variable select index $(random(1,atoms,364500):%.0f)
variable select index 261402
group select id ${select}
group select id 261402
1 atoms in group select
if "${inside} == 0" then     "group select delete"     "variable select delete"     "next n"     "jump SELF jump"
group select delete
variable select delete
next n
jump SELF jump
variable select index $(random(1,atoms,364500):%.0f)
variable select index 13554
group select id ${select}
group select id 13554
1 atoms in group select
if "${inside} == 0" then     "group select delete"     "variable select delete"     "next n"     "jump SELF jump"
group select delete
variable select delete
next n
jump SELF jump
variable select index $(random(1,atoms,364500):%.0f)
variable select index 320685
group select id ${select}
group select id 320685
1 atoms in group select
if "${inside} == 0" then     "group select delete"     "variable select delete"     "next n"     "jump SELF jump"
group select delete
variable select delete
next n
jump SELF jump
variable select index $(random(1,atoms,364500):%.0f)
variable select index 228097
group select id ${select}
group select id 228097
1 atoms in group select
if "${inside} == 0" then     "group select delete"     "variable select delete"     "next n"     "jump SELF jump"
group select delete
variable select delete
next n
jump SELF jump
variable select index $(random(1,atoms,364500):%.0f)
variable select index 82910
group select id ${select}
group select id 82910
1 atoms in group select
if "${inside} == 0" then     "group select delete"     "variable select delete"     "next n"     "jump SELF jump"
group select delete
variable select delete
next n
jump SELF jump
variable select index $(random(1,atoms,364500):%.0f)
variable select index 153726
group select id ${select}
group select id 153726
1 atoms in group select
if "${inside} == 0" then     "group select delete"     "variable select delete"     "next n"     "jump SELF jump"
group select delete
variable select delete
next n
jump SELF jump
variable select index $(random(1,atoms,364500):%.0f)
variable select index 289593
group select id ${select}
group select id 289593
1 atoms in group select
if "${inside} == 0" then     "group select delete"     "variable select delete"     "next n"     "jump SELF jump"
group select delete
variable select delete
next n
jump SELF jump
variable select index $(random(1,atoms,364500):%.0f)
variable select index 83891
group select id ${select}
group select id 83891
1 atoms in group select
if "${inside} == 0" then     "group select delete"     "variable select delete"     "next n"     "jump SELF jump"
group select delete
variable select delete
next n
jump SELF jump
variable select index $(random(1,atoms,364500):%.0f)
variable select index 200295
group select id ${select}
group select id 200295
1 atoms in group select
if "${inside} == 0" then     "group select delete"     "variable select delete"     "next n"     "jump SELF jump"
group select delete
variable select delete
next n
jump SELF jump
variable select index $(random(1,atoms,364500):%.0f)
variable select index 305438
group select id ${select}
group select id 305438
1 atoms in group select
if "${inside} == 0" then     "group select delete"     "variable select delete"     "next n"     "jump SELF jump"
group select delete
variable select delete
next n
jump SELF jump
variable select index $(random(1,atoms,364500):%.0f)
variable select index 354614
group select id ${select}
group select id 354614
1 atoms in group select
if "${inside} == 0" then     "group select delete"     "variable select delete"     "next n"     "jump SELF jump"
group select delete
variable select delete
next n
jump SELF jump
variable select index $(random(1,atoms,364500):%.0f)
variable select index 273486
group select id ${select}
group select id 273486
1 atoms in group select
if "${inside} == 0" then     "group select delete"     "variable select delete"     "next n"     "jump SELF jump"
group select delete
variable select delete
next n
jump SELF jump
variable select index $(random(1,atoms,364500):%.0f)
variable select index 305520
group select id ${select}
group select id 305520
1 atoms in group select
if "${inside} == 0" then     "group select delete"     "variable select delete"     "next n"     "jump SELF jump"
group select delete
variable select delete
next n
jump SELF jump
variable select index $(random(1,atoms,364500):%.0f)
variable select index 315690
group select id ${select}
group select id 315690
1 atoms in group select
if "${inside} == 0" then     "group select delete"     "variable select delete"     "next n"     "jump SELF jump"
group select delete
variable select delete
next n
jump SELF jump
variable select index $(random(1,atoms,364500):%.0f)
variable select index 80567
group select id ${select}
group select id 80567
1 atoms in group select
if "${inside} == 0" then     "group select delete"     "variable select delete"     "next n"     "jump SELF jump"
group select delete
variable select delete
next n
jump SELF jump
variable select index $(random(1,atoms,364500):%.0f)
variable select index 55067
group select id ${select}
group select id 55067
1 atoms in group select
if "${inside} == 0" then     "group select delete"     "variable select delete"     "next n"     "jump SELF jump"
group select delete
variable select delete
next n
jump SELF jump
variable select index $(random(1,atoms,364500):%.0f)
variable select index 325149
group select id ${select}
group select id 325149
1 atoms in group select
if "${inside} == 0" then     "group select delete"     "variable select delete"     "next n"     "jump SELF jump"
group select delete
variable select delete
next n
jump SELF jump
variable select index $(random(1,atoms,364500):%.0f)
variable select index 187938
group select id ${select}
group select id 187938
1 atoms in group select
if "${inside} == 0" then     "group select delete"     "variable select delete"     "next n"     "jump SELF jump"
group select delete
variable select delete
next n
jump SELF jump
variable select index $(random(1,atoms,364500):%.0f)
variable select index 99188
group select id ${select}
group select id 99188
1 atoms in group select
if "${inside} == 0" then     "group select delete"     "variable select delete"     "next n"     "jump SELF jump"
group select delete
variable select delete
next n
jump SELF jump
variable select index $(random(1,atoms,364500):%.0f)
variable select index 289179
group select id ${select}
group select id 289179
1 atoms in group select
if "${inside} == 0" then     "group select delete"     "variable select delete"     "next n"     "jump SELF jump"
group select delete
variable select delete
next n
jump SELF jump
variable select index $(random(1,atoms,364500):%.0f)
variable select index 210969
group select id ${select}
group select id 210969
1 atoms in group select
if "${inside} == 0" then     "group select delete"     "variable select delete"     "next n"     "jump SELF jump"
group select delete
variable select delete
next n
jump SELF jump
variable select index $(random(1,atoms,364500):%.0f)
variable select index 145645
group select id ${select}
group select id 145645
1 atoms in group select
if "${inside} == 0" then     "group select delete"     "variable select delete"     "next n"     "jump SELF jump"
group select delete
variable select delete
next n
jump SELF jump
variable select index $(random(1,atoms,364500):%.0f)
variable select index 259004
group select id ${select}
group select id 259004
1 atoms in group select
if "${inside} == 0" then     "group select delete"     "variable select delete"     "next n"     "jump SELF jump"
group select delete
variable select delete
next n
jump SELF jump
variable select index $(random(1,atoms,364500):%.0f)
variable select index 35765
group select id ${select}
group select id 35765
1 atoms in group select
if "${inside} == 0" then     "group select delete"     "variable select delete"     "next n"     "jump SELF jump"
group select delete
variable select delete
next n
jump SELF jump
variable select index $(random(1,atoms,364500):%.0f)
variable select index 233291
group select id ${select}
group select id 233291
1 atoms in group select
if "${inside} == 0" then     "group select delete"     "variable select delete"     "next n"     "jump SELF jump"
group select delete
variable select delete
next n
jump SELF jump
variable select index $(random(1,atoms,364500):%.0f)
variable select index 181832
group select id ${select}
group select id 181832
1 atoms in group select
if "${inside} == 0" then     "group select delete"     "variable select delete"     "next n"     "jump SELF jump"
group select delete
variable select delete
next n
jump SELF jump
variable select index $(random(1,atoms,364500):%.0f)
variable select index 277428
group select id ${select}
group select id 277428
1 atoms in group select
if "${inside} == 0" then     "group select delete"     "variable select delete"     "next n"     "jump SELF jump"
group select delete
variable select delete
next n
jump SELF jump
variable select index $(random(1,atoms,364500):%.0f)
variable select index 285218
group select id ${select}
group select id 285218
1 atoms in group select
if "${inside} == 0" then     "group select delete"     "variable select delete"     "next n"     "jump SELF jump"
group select delete
variable select delete
next n
jump SELF jump
variable select index $(random(1,atoms,364500):%.0f)
variable select index 180204
group select id ${select}
group select id 180204
1 atoms in group select
if "${inside} == 0" then     "group select delete"     "variable select delete"     "next n"     "jump SELF jump"
group select delete
variable select delete
next n
jump SELF jump
variable select index $(random(1,atoms,364500):%.0f)
variable select index 57863
group select id ${select}
group select id 57863
1 atoms in group select
if "${inside} == 0" then     "group select delete"     "variable select delete"     "next n"     "jump SELF jump"
group select delete
variable select delete
next n
jump SELF jump
variable select index $(random(1,atoms,364500):%.0f)
variable select index 318461
group select id ${select}
group select id 318461
1 atoms in group select
if "${inside} == 0" then     "group select delete"     "variable select delete"     "next n"     "jump SELF jump"
group select delete
variable select delete
next n
jump SELF jump
variable select index $(random(1,atoms,364500):%.0f)
variable select index 66303
group select id ${select}
group select id 66303
1 atoms in group select
if "${inside} == 0" then     "group select delete"     "variable select delete"     "next n"     "jump SELF jump"
group select delete
variable select delete
next n
jump SELF jump
variable select index $(random(1,atoms,364500):%.0f)
variable select index 341615
group select id ${select}
group select id 341615
1 atoms in group select
if "${inside} == 0" then     "group select delete"     "variable select delete"     "next n"     "jump SELF jump"
group select delete
variable select delete
next n
jump SELF jump
variable select index $(random(1,atoms,364500):%.0f)
variable select index 334443
group select id ${select}
group select id 334443
1 atoms in group select
if "${inside} == 0" then     "group select delete"     "variable select delete"     "next n"     "jump SELF jump"
group select delete
variable select delete
next n
jump SELF jump
variable select index $(random(1,atoms,364500):%.0f)
variable select index 214018
group select id ${select}
group select id 214018
1 atoms in group select
if "${inside} == 0" then     "group select delete"     "variable select delete"     "next n"     "jump SELF jump"
group select delete
variable select delete
next n
jump SELF jump
variable select index $(random(1,atoms,364500):%.0f)
variable select index 146920
group select id ${select}
group select id 146920
1 atoms in group select
if "${inside} == 0" then     "group select delete"     "variable select delete"     "next n"     "jump SELF jump"
group select delete
variable select delete
next n
jump SELF jump
variable select index $(random(1,atoms,364500):%.0f)
variable select index 142389
group select id ${select}
group select id 142389
1 atoms in group select
if "${inside} == 0" then     "group select delete"     "variable select delete"     "next n"     "jump SELF jump"
group select delete
variable select delete
next n
jump SELF jump
variable select index $(random(1,atoms,364500):%.0f)
variable select index 218649
group select id ${select}
group select id 218649
1 atoms in group select
if "${inside} == 0" then     "group select delete"     "variable select delete"     "next n"     "jump SELF jump"
group select delete
variable select delete
next n
jump SELF jump
variable select index $(random(1,atoms,364500):%.0f)
variable select index 137308
group select id ${select}
group select id 137308
1 atoms in group select
if "${inside} == 0" then     "group select delete"     "variable select delete"     "next n"     "jump SELF jump"
group select delete
variable select delete
next n
jump SELF jump
variable select index $(random(1,atoms,364500):%.0f)
variable select index 350829
group select id ${select}
group select id 350829
1 atoms in group select
if "${inside} == 0" then     "group select delete"     "variable select delete"     "next n"     "jump SELF jump"
group select delete
variable select delete
next n
jump SELF jump
variable select index $(random(1,atoms,364500):%.0f)
variable select index 232329
group select id ${select}
group select id 232329
1 atoms in group select
if "${inside} == 0" then     "group select delete"     "variable select delete"     "next n"     "jump SELF jump"
group select delete
variable select delete
next n
jump SELF jump
variable select index $(random(1,atoms,364500):%.0f)
variable select index 236135
group select id ${select}
group select id 236135
1 atoms in group select
if "${inside} == 0" then     "group select delete"     "variable select delete"     "next n"     "jump SELF jump"
group select delete
variable select delete
next n
jump SELF jump
variable select index $(random(1,atoms,364500):%.0f)
variable select index 162434
group select id ${select}
group select id 162434
1 atoms in group select
if "${inside} == 0" then     "group select delete"     "variable select delete"     "next n"     "jump SELF jump"
group select delete
variable select delete
next n
jump SELF jump
variable select index $(random(1,atoms,364500):%.0f)
variable select index 312377
group select id ${select}
group select id 312377
1 atoms in group select
if "${inside} == 0" then     "group select delete"     "variable select delete"     "next n"     "jump SELF jump"
group select delete
variable select delete
next n
jump SELF jump
variable select index $(random(1,atoms,364500):%.0f)
variable select index 239246
group select id ${select}
group select id 239246
1 atoms in group select
if "${inside} == 0" then     "group select delete"     "variable select delete"     "next n"     "jump SELF jump"
group select delete
variable select delete
next n
jump SELF jump
variable select index $(random(1,atoms,364500):%.0f)
variable select index 75912
group select id ${select}
group select id 75912
1 atoms in group select
if "${inside} == 0" then     "group select delete"     "variable select delete"     "next n"     "jump SELF jump"
group select delete
variable select delete
next n
jump SELF jump
variable select index $(random(1,atoms,364500):%.0f)
variable select index 100786
group select id ${select}
group select id 100786
1 atoms in group select
if "${inside} == 0" then     "group select delete"     "variable select delete"     "next n"     "jump SELF jump"
group select delete
variable select delete
next n
jump SELF jump
variable select index $(random(1,atoms,364500):%.0f)
variable select index 177289
group select id ${select}
group select id 177289
1 atoms in group select
if "${inside} == 0" then     "group select delete"     "variable select delete"     "next n"     "jump SELF jump"
group select delete
variable select delete
next n
jump SELF jump
variable select index $(random(1,atoms,364500):%.0f)
variable select index 181581
group select id ${select}
group select id 181581
1 atoms in group select
if "${inside} == 0" then     "group select delete"     "variable select delete"     "next n"     "jump SELF jump"
group select delete
variable select delete
next n
jump SELF jump
variable select index $(random(1,atoms,364500):%.0f)
variable select index 322296
group select id ${select}
group select id 322296
1 atoms in group select
if "${inside} == 0" then     "group select delete"     "variable select delete"     "next n"     "jump SELF jump"
group select delete
variable select delete
next n
jump SELF jump
variable select index $(random(1,atoms,364500):%.0f)
variable select index 326564
group select id ${select}
group select id 326564
1 atoms in group select
if "${inside} == 0" then     "group select delete"     "variable select delete"     "next n"     "jump SELF jump"
group select delete
variable select delete
next n
jump SELF jump
variable select index $(random(1,atoms,364500):%.0f)
variable select index 312810
group select id ${select}
group select id 312810
1 atoms in group select
if "${inside} == 0" then     "group select delete"     "variable select delete"     "next n"     "jump SELF jump"
group select delete
variable select delete
next n
jump SELF jump
variable select index $(random(1,atoms,364500):%.0f)
variable select index 269183
group select id ${select}
group select id 269183
1 atoms in group select
if "${inside} == 0" then     "group select delete"     "variable select delete"     "next n"     "jump SELF jump"
group select delete
variable select delete
next n
jump SELF jump
variable select index $(random(1,atoms,364500):%.0f)
variable select index 219492
group select id ${select}
group select id 219492
1 atoms in group select
if "${inside} == 0" then     "group select delete"     "variable select delete"     "next n"     "jump SELF jump"
group select delete
variable select delete
next n
jump SELF jump
variable select index $(random(1,atoms,364500):%.0f)
variable select index 33698
group select id ${select}
group select id 33698
1 atoms in group select
if "${inside} == 0" then     "group select delete"     "variable select delete"     "next n"     "jump SELF jump"
group select delete
variable select delete
next n
jump SELF jump
variable select index $(random(1,atoms,364500):%.0f)
variable select index 221633
group select id ${select}
group select id 221633
1 atoms in group select
if "${inside} == 0" then     "group select delete"     "variable select delete"     "next n"     "jump SELF jump"
group select delete
variable select delete
next n
jump SELF jump
variable select index $(random(1,atoms,364500):%.0f)
variable select index 187810
group select id ${select}
group select id 187810
1 atoms in group select
if "${inside} == 0" then     "group select delete"     "variable select delete"     "next n"     "jump SELF jump"
group select delete
variable select delete
next n
jump SELF jump
variable select index $(random(1,atoms,364500):%.0f)
variable select index 312482
group select id ${select}
group select id 312482
1 atoms in group select
if "${inside} == 0" then     "group select delete"     "variable select delete"     "next n"     "jump SELF jump"
group select delete
variable select delete
next n
jump SELF jump
variable select index $(random(1,atoms,364500):%.0f)
variable select index 235317
group select id ${select}
group select id 235317
1 atoms in group select
if "${inside} == 0" then     "group select delete"     "variable select delete"     "next n"     "jump SELF jump"
group select delete
variable select delete
next n
jump SELF jump
variable select index $(random(1,atoms,364500):%.0f)
variable select index 312789
group select id ${select}
group select id 312789
1 atoms in group select
if "${inside} == 0" then     "group select delete"     "variable select delete"     "next n"     "jump SELF jump"
group select delete
variable select delete
next n
jump SELF jump
variable select index $(random(1,atoms,364500):%.0f)
variable select index 117032
group select id ${select}
group select id 117032
1 atoms in group select
if "${inside} == 0" then     "group select delete"     "variable select delete"     "next n"     "jump SELF jump"
group select delete
variable select delete
next n
jump SELF jump
variable select index $(random(1,atoms,364500):%.0f)
variable select index 224657
group select id ${select}
group select id 224657
1 atoms in group select
if "${inside} == 0" then     "group select delete"     "variable select delete"     "next n"     "jump SELF jump"
group select delete
variable select delete
next n
jump SELF jump
variable select index $(random(1,atoms,364500):%.0f)
variable select index 110155
group select id ${select}
group select id 110155
1 atoms in group select
if "${inside} == 0" then     "group select delete"     "variable select delete"     "next n"     "jump SELF jump"
group select delete
variable select delete
next n
jump SELF jump
variable select index $(random(1,atoms,364500):%.0f)
variable select index 206248
group select id ${select}
group select id 206248
1 atoms in group select
if "${inside} == 0" then     "group select delete"     "variable select delete"     "next n"     "jump SELF jump"
group select delete
variable select delete
next n
jump SELF jump
variable select index $(random(1,atoms,364500):%.0f)
variable select index 218847
group select id ${select}
group select id 218847
1 atoms in group select
if "${inside} == 0" then     "group select delete"     "variable select delete"     "next n"     "jump SELF jump"
group select delete
variable select delete
next n
jump SELF jump
variable select index $(random(1,atoms,364500):%.0f)
variable select index 115902
group select id ${select}
group select id 115902
1 atoms in group select
if "${inside} == 0" then     "group select delete"     "variable select delete"     "next n"     "jump SELF jump"
group select delete
variable select delete
next n
jump SELF jump
variable select index $(random(1,atoms,364500):%.0f)
variable select index 218890
group select id ${select}
group select id 218890
1 atoms in group select
if "${inside} == 0" then     "group select delete"     "variable select delete"     "next n"     "jump SELF jump"
group select delete
variable select delete
next n
jump SELF jump
variable select index $(random(1,atoms,364500):%.0f)
variable select index 296729
group select id ${select}
group select id 296729
1 atoms in group select
if "${inside} == 0" then     "group select delete"     "variable select delete"     "next n"     "jump SELF jump"
group select delete
variable select delete
next n
jump SELF jump
variable select index $(random(1,atoms,364500):%.0f)
variable select index 54051
group select id ${select}
group select id 54051
1 atoms in group select
if "${inside} == 0" then     "group select delete"     "variable select delete"     "next n"     "jump SELF jump"
group select delete
variable select delete
next n
jump SELF jump
variable select index $(random(1,atoms,364500):%.0f)
variable select index 229789
group select id ${select}
group select id 229789
1 atoms in group select
if "${inside} == 0" then     "group select delete"     "variable select delete"     "next n"     "jump SELF jump"
group select delete
variable select delete
next n
jump SELF jump
variable select index $(random(1,atoms,364500):%.0f)
variable select index 239454
group select id ${select}
group select id 239454
1 atoms in group select
[...]

Nlocal:          91125 ave       91635 max       90777 min
Histogram: 2 0 0 0 0 0 1 0 0 1
Nghost:        40018.5 ave       40368 max       39508 min
Histogram: 1 0 0 1 0 0 0 0 0 2
Neighs:    5.85219e+06 ave  5.8954e+06 max 5.82125e+06 min
Histogram: 2 0 0 0 0 0 1 0 0 1

Total # of neighbors = 23408754
Ave neighs/atom = 64.221547
Neighbor list builds = 121
Dangerous builds = 0
if '$(time)>25' then 'write_data NiCoCrFe_pka_5keV_final.lmp' 'quit' 
No /omp style for force computation currently active
Per MPI rank memory allocation (min/avg/max) = 80.33 | 80.36 | 80.39 Mbytes
     Time         Step          Temp          Press          TotEng    
 2.3                23000   373.45508     -27357.021     -1554641.2    
 2.31               23100   375.71295     -27311.282     -1554641.2    
 2.32               23200   375.20141     -27288.549     -1554641.2    
 2.33               23300   374.38424     -27278.383     -1554641.1    
 2.34               23400   374.77661     -27269.353     -1554641.2    
 2.35               23500   373.05258     -27248.344     -1554641.2    
 2.36               23600   374.15891     -27247.073     -1554641.2    
 2.37               23700   368.77391     -27315.297     -1554641.1    
 2.38               23800   374.14364     -27261.398     -1554641.2    
 2.39               23900   373.19387     -27224.955     -1554641.2    
 2.4                24000   369.10194     -27170.858     -1554641.2    
Loop time of 652.947 on 16 procs for 1000 steps with 364500 atoms

Performance: 0.013 ns/day, 1813.743 hours/ns, 1.532 timesteps/s, 558.238 katom-step/s
94.5% CPU use with 4 MPI tasks x 4 OpenMP threads

MPI task timing breakdown:
Section |  min time  |  avg time  |  max time  |%varavg| %total
---------------------------------------------------------------
Pair    | 589.21     | 590.31     | 590.97     |   2.8 | 90.41
Neigh   | 21.044     | 21.119     | 21.185     |   1.1 |  3.23
Comm    | 28.143     | 28.837     | 30.059     |  14.1 |  4.42
Output  | 0.54391    | 0.59136    | 0.66647    |   6.0 |  0.09
Modify  | 10.003     | 10.024     | 10.033     |   0.4 |  1.54
Other   |            | 2.065      |            |       |  0.32

Nlocal:          91125 ave       91624 max       90753 min
Histogram: 1 1 0 0 0 1 0 0 0 1
Nghost:        40019.5 ave       40392 max       39519 min
Histogram: 1 0 0 0 1 0 0 0 1 1
Neighs:    5.85169e+06 ave 5.89292e+06 max 5.82032e+06 min
Histogram: 2 0 0 0 0 0 1 0 0 1

Total # of neighbors = 23406752
Ave neighs/atom = 64.216055
Neighbor list builds = 106
Dangerous builds = 0
if '$(time)>25' then 'write_data NiCoCrFe_pka_5keV_final.lmp' 'quit' 
No /omp style for force computation currently active
Per MPI rank memory allocation (min/avg/max) = 80.33 | 80.36 | 80.39 Mbytes
     Time         Step          Temp          Press          TotEng    
 2.4                24000   369.10194     -27170.858     -1554641.2    
 2.41               24100   371.41293     -27100.572     -1554641.2    
 2.42               24200   369.8184      -27104.951     -1554641.2    
 2.43               24300   369.27528     -27115.174     -1554641.1    
 2.44               24400   370.34895     -27074.246     -1554641.2    
 2.45               24500   368.94412     -27052.261     -1554641.2    
 2.46               24600   368.42388     -27015.359     -1554641.2    
 2.47               24700   368.75479     -26996.095     -1554641.2    
 2.48               24800   367.42426     -26927.255     -1554641.2    
 2.49               24900   367.54745     -26910.518     -1554641.2    
 2.5                25000   366.66725     -26861.235     -1554641.2    
Loop time of 613.289 on 16 procs for 1000 steps with 364500 atoms

Performance: 0.014 ns/day, 1703.580 hours/ns, 1.631 timesteps/s, 594.337 katom-step/s
94.1% CPU use with 4 MPI tasks x 4 OpenMP threads

MPI task timing breakdown:
Section |  min time  |  avg time  |  max time  |%varavg| %total
---------------------------------------------------------------
Pair    | 560.42     | 562.93     | 565.28     |   7.2 | 91.79
Neigh   | 13.996     | 14.064     | 14.175     |   1.9 |  2.29
Comm    | 21.424     | 23.771     | 26.335     |  35.7 |  3.88
Output  | 0.51818    | 0.57513    | 0.63506    |   6.2 |  0.09
Modify  | 9.8784     | 9.9346     | 9.9779     |   1.2 |  1.62
Other   |            | 2.019      |            |       |  0.33

Nlocal:          91125 ave       91588 max       90814 min
Histogram: 2 0 0 0 0 1 0 0 0 1
Nghost:          40021 ave       40334 max       39555 min
Histogram: 1 0 0 0 1 0 0 0 0 2
Neighs:    5.84946e+06 ave 5.89107e+06 max 5.82006e+06 min
Histogram: 2 0 0 0 0 0 1 0 0 1

Total # of neighbors = 23397840
Ave neighs/atom = 64.191605
Neighbor list builds = 76
Dangerous builds = 0
if '$(time)>25' then 'write_data NiCoCrFe_pka_5keV_final.lmp' 'quit' 
No /omp style for force computation currently active
Per MPI rank memory allocation (min/avg/max) = 80.33 | 80.36 | 80.39 Mbytes
     Time         Step          Temp          Press          TotEng    
 2.5                25000   366.66725     -26861.235     -1554641.2    
 2.51               25100   366.0822      -26799.832     -1554641.2    
 2.52               25200   364.62828     -26744.506     -1554641.2    
 2.53               25300   364.81494     -26713.557     -1554641.2    
 2.54               25400   364.45876     -26654.586     -1554641.2    
 2.55               25500   364.05769     -26638.191     -1554641.2    
 2.5601564          25600   363.42549     -26588.921     -1554641.2    
 2.5705938          25700   362.89817     -26563.452     -1554641.2    
 2.583678           25800   362.53837     -26535.704     -1554641.2    
 2.5968854          25900   362.25364     -26526.035     -1554641.2    
 2.6120202          26000   361.90308     -26456.045     -1554641.2    
Loop time of 732.69 on 16 procs for 1000 steps with 364500 atoms

Performance: 0.020 ns/day, 1203.375 hours/ns, 1.365 timesteps/s, 497.482 katom-step/s
91.2% CPU use with 4 MPI tasks x 4 OpenMP threads

MPI task timing breakdown:
Section |  min time  |  avg time  |  max time  |%varavg| %total
---------------------------------------------------------------
Pair    | 681.9      | 684.88     | 686.66     |   7.5 | 93.47
Neigh   | 8.4583     | 8.4914     | 8.5307     |   1.0 |  1.16
Comm    | 23.964     | 25.958     | 28.772     |  37.4 |  3.54
Output  | 0.49828    | 0.53375    | 0.5733     |   3.8 |  0.07
Modify  | 10.384     | 10.518     | 10.612     |   2.9 |  1.44
Other   |            | 2.312      |            |       |  0.32

Nlocal:          91125 ave       91456 max       90761 min
Histogram: 1 1 0 0 0 0 0 0 0 2
Nghost:        40022.5 ave       40396 max       39687 min
Histogram: 2 0 0 0 0 0 0 0 1 1
Neighs:    5.84664e+06 ave 5.88294e+06 max  5.8139e+06 min
Histogram: 2 0 0 0 0 0 0 0 1 1

Total # of neighbors = 23386551
Ave neighs/atom = 64.160634
Neighbor list builds = 42
Dangerous builds = 0
if '$(time)>25' then 'write_data NiCoCrFe_pka_5keV_final.lmp' 'quit' 
No /omp style for force computation currently active
Per MPI rank memory allocation (min/avg/max) = 80.33 | 80.36 | 80.39 Mbytes
     Time         Step          Temp          Press          TotEng    
 2.6120202          26000   361.90308     -26456.045     -1554641.2    
 2.6316423          26100   361.95087     -26453.089     -1554641.2    
 2.6543226          26200   361.61848     -26376.573     -1554641.2    
 2.6861318          26300   362.15381     -26349.766     -1554641.2    
 2.7382638          26400   362.12854     -26341.054     -1554641.2    
 2.8096129          26500   361.97976     -26299.619     -1554641.2    
 2.8894046          26600   363.03969     -26340.205     -1554641.2    
 2.9694386          26700   363.68779     -26458.921     -1554641.2    
 3.0462308          26800   362.79579     -26307.709     -1554641.2    
 3.1332372          26900   363.64099     -26367.607     -1554641.2    
 3.225095           27000   363.21501     -26399.5       -1554641.2    
Loop time of 752.015 on 16 procs for 1000 steps with 364500 atoms

Performance: 0.118 ns/day, 202.925 hours/ns, 1.330 timesteps/s, 484.698 katom-step/s
91.2% CPU use with 4 MPI tasks x 4 OpenMP threads

MPI task timing breakdown:
Section |  min time  |  avg time  |  max time  |%varavg| %total
---------------------------------------------------------------
Pair    | 704.46     | 706.07     | 707.77     |   4.7 | 93.89
Neigh   | 6.9439     | 6.9963     | 7.0705     |   1.8 |  0.93
Comm    | 23.756     | 25.511     | 27.074     |  24.3 |  3.39
Output  | 0.48227    | 0.52864    | 0.57178    |   4.6 |  0.07
Modify  | 10.56      | 10.659     | 10.741     |   2.1 |  1.42
Other   |            | 2.253      |            |       |  0.30

Nlocal:          91125 ave       92315 max       89879 min
Histogram: 2 0 0 0 0 0 0 0 0 2
Nghost:        40020.5 ave       41263 max       38830 min
Histogram: 2 0 0 0 0 0 0 0 0 2
Neighs:    5.84087e+06 ave  5.9403e+06 max 5.73554e+06 min
Histogram: 2 0 0 0 0 0 0 0 0 2

Total # of neighbors = 23363491
Ave neighs/atom = 64.097369
Neighbor list builds = 37
Dangerous builds = 0
if '$(time)>25' then 'write_data NiCoCrFe_pka_5keV_final.lmp' 'quit' 
No /omp style for force computation currently active
Per MPI rank memory allocation (min/avg/max) = 80.35 | 80.59 | 80.79 Mbytes
     Time         Step          Temp          Press          TotEng    
 3.225095           27000   363.21501     -26399.5       -1554641.2    
 3.3326489          27100   363.4668      -26358.307     -1554641.2    
 3.4464433          27200   363.53532     -26354.576     -1554641.2    
 3.5356463          27300   364.27573     -26420.805     -1554641.2    
 3.6487263          27400   364.384       -26409.97      -1554641.2    
 3.7792467          27500   363.88124     -26346.317     -1554641.2    
 3.864392           27600   363.78664     -26428.205     -1554641.2    
 3.9642535          27700   364.33126     -26422.783     -1554641.2    
 4.0703663          27800   364.13289     -26380.336     -1554641.2    
 4.1931706          27900   364.23066     -26436.91      -1554641.2    
 4.3341678          28000   363.95356     -26380.04      -1554641.2    
Loop time of 648.843 on 16 procs for 1000 steps with 364500 atoms

Performance: 0.182 ns/day, 132.051 hours/ns, 1.541 timesteps/s, 561.769 katom-step/s
94.3% CPU use with 4 MPI tasks x 4 OpenMP threads

MPI task timing breakdown:
Section |  min time  |  avg time  |  max time  |%varavg| %total
---------------------------------------------------------------
Pair    | 603.48     | 608.95     | 617.05     |  22.6 | 93.85
Neigh   | 5.0308     | 5.1295     | 5.2384     |   3.3 |  0.79
Comm    | 13.849     | 21.903     | 27.271     | 118.0 |  3.38
Output  | 0.42652    | 0.44878    | 0.47081    |   2.5 |  0.07
Modify  | 10.308     | 10.441     | 10.545     |   3.0 |  1.61
Other   |            | 1.971      |            |       |  0.30

Nlocal:          91125 ave       92036 max       90153 min
Histogram: 1 1 0 0 0 0 0 0 0 2
Nghost:          40018 ave       40992 max       39107 min
Histogram: 2 0 0 0 0 0 0 0 1 1
Neighs:    5.84165e+06 ave 5.91246e+06 max  5.7667e+06 min
Histogram: 2 0 0 0 0 0 0 0 0 2

Total # of neighbors = 23366617
Ave neighs/atom = 64.105945
Neighbor list builds = 36
Dangerous builds = 0
if '$(time)>25' then 'write_data NiCoCrFe_pka_5keV_final.lmp' 'quit' 
No /omp style for force computation currently active
Per MPI rank memory allocation (min/avg/max) = 80.35 | 80.59 | 80.79 Mbytes
     Time         Step          Temp          Press          TotEng    
 4.3341678          28000   363.95356     -26380.04      -1554641.2    
 4.4776207          28100   364.22714     -26363.339     -1554641.2    
 4.6203969          28200   363.55901     -26357.238     -1554641.2    
 4.7684471          28300   363.85386     -26365.68      -1554641.2    
 4.9158623          28400   363.79428     -26343.809     -1554641.2    
 5.064802           28500   363.64644     -26360.86      -1554641.2    
 5.155791           28600   364.58176     -26433.788     -1554641.2    
 5.2986697          28700   364.22406     -26415.536     -1554641.2    
 5.4500018          28800   364.31648     -26451.538     -1554641.2    
 5.6022581          28900   364.59111     -26369.119     -1554641.2    
 5.7530567          29000   364.34376     -26372.92      -1554641.2    
Loop time of 797.72 on 16 procs for 1000 steps with 364500 atoms

Performance: 0.166 ns/day, 144.157 hours/ns, 1.254 timesteps/s, 456.927 katom-step/s
65.7% CPU use with 4 MPI tasks x 4 OpenMP threads

MPI task timing breakdown:
Section |  min time  |  avg time  |  max time  |%varavg| %total
---------------------------------------------------------------
Pair    | 760.07     | 760.63     | 761.7      |   2.3 | 95.35
Neigh   | 4.4852     | 4.5446     | 4.6017     |   2.3 |  0.57
Comm    | 18.764     | 19.914     | 20.559     |  15.4 |  2.50
Output  | 0.29143    | 0.31754    | 0.34494    |   3.5 |  0.04
Modify  | 10.326     | 10.361     | 10.375     |   0.6 |  1.30
Other   |            | 1.954      |            |       |  0.24

Nlocal:          91125 ave       91632 max       90684 min
Histogram: 1 1 0 0 0 0 0 1 0 1
Nghost:          40018 ave       40461 max       39511 min
Histogram: 1 0 1 0 0 0 0 0 1 1
Neighs:    5.84297e+06 ave 5.88542e+06 max 5.80874e+06 min
Histogram: 2 0 0 0 0 0 0 1 0 1

Total # of neighbors = 23371863
Ave neighs/atom = 64.120337
Neighbor list builds = 34
Dangerous builds = 0
if '$(time)>25' then 'write_data NiCoCrFe_pka_5keV_final.lmp' 'quit' 
No /omp style for force computation currently active
Per MPI rank memory allocation (min/avg/max) = 80.35 | 80.59 | 80.79 Mbytes
     Time         Step          Temp          Press          TotEng    
 5.7530567          29000   364.34376     -26372.92      -1554641.2    
 5.9056008          29100   363.8737      -26396.655     -1554641.2    
 6.0564326          29200   363.88038     -26383.181     -1554641.2    
 6.2095486          29300   364.33225     -26377.703     -1554641.2    
 6.3613532          29400   364.62487     -26390.627     -1554641.2    
 6.5155943          29500   363.95925     -26365.521     -1554641.2    
 6.6723858          29600   364.1522      -26413.795     -1554641.2    
 6.82724            29700   364.15778     -26423.539     -1554641.2    
 6.9800387          29800   364.36386     -26406.917     -1554641.2    
 7.1359387          29900   364.36015     -26427.059     -1554641.2    
 7.2923603          30000   365.03133     -26454.157     -1554641.2    
Loop time of 456.96 on 16 procs for 1000 steps with 364500 atoms

Performance: 0.301 ns/day, 79.768 hours/ns, 2.188 timesteps/s, 797.663 katom-step/s
93.8% CPU use with 4 MPI tasks x 4 OpenMP threads

MPI task timing breakdown:
Section |  min time  |  avg time  |  max time  |%varavg| %total
---------------------------------------------------------------
Pair    | 417.88     | 419.15     | 421.32     |   6.7 | 91.73
Neigh   | 4.6201     | 4.6558     | 4.6908     |   1.5 |  1.02
Comm    | 19.241     | 21.313     | 22.482     |  28.2 |  4.66
Output  | 0.30321    | 0.35018    | 0.39841    |   6.0 |  0.08
Modify  | 9.5845     | 9.7052     | 9.8408     |   3.9 |  2.12
Other   |            | 1.788      |            |       |  0.39

Nlocal:          91125 ave       91718 max       90500 min
Histogram: 2 0 0 0 0 0 0 0 0 2
Nghost:        40017.5 ave       40640 max       39425 min
Histogram: 2 0 0 0 0 0 0 0 0 2
Neighs:    5.84371e+06 ave  5.8886e+06 max 5.79449e+06 min
Histogram: 1 1 0 0 0 0 0 0 0 2

Total # of neighbors = 23374830
Ave neighs/atom = 64.128477
Neighbor list builds = 32
Dangerous builds = 0
if '$(time)>25' then 'write_data NiCoCrFe_pka_5keV_final.lmp' 'quit' 
No /omp style for force computation currently active
Per MPI rank memory allocation (min/avg/max) = 80.35 | 80.59 | 80.79 Mbytes
     Time         Step          Temp          Press          TotEng    
 7.2923603          30000   365.03133     -26454.157     -1554641.2    
 7.4493074          30100   363.80426     -26428.266     -1554641.1    
 7.6076463          30200   364.81143     -26450.834     -1554641.2    
 7.7558281          30300   364.47519     -26428.379     -1554641.2    
 7.9139942          30400   363.86627     -26398.81      -1554641.1    
 8.0701467          30500   364.35264     -26461.422     -1554641.1    
 8.2263601          30600   364.19014     -26370.328     -1554641.1    
 8.3782173          30700   363.51577     -26373.797     -1554641.1    
 8.534689           30800   364.57768     -26457.76      -1554641.2    
 8.6941407          30900   364.20894     -26400.629     -1554641.1    
 8.8485557          31000   364.28118     -26410.427     -1554641.1    
Loop time of 405.821 on 16 procs for 1000 steps with 364500 atoms

Performance: 0.345 ns/day, 69.554 hours/ns, 2.464 timesteps/s, 898.180 katom-step/s
93.7% CPU use with 4 MPI tasks x 4 OpenMP threads

MPI task timing breakdown:
Section |  min time  |  avg time  |  max time  |%varavg| %total
---------------------------------------------------------------
Pair    | 366.21     | 367.62     | 369.25     |   7.1 | 90.59
Neigh   | 4.4413     | 4.5137     | 4.6594     |   4.1 |  1.11
Comm    | 20.421     | 22.039     | 23.415     |  28.6 |  5.43
Output  | 0.31416    | 0.37043    | 0.40892    |   5.9 |  0.09
Modify  | 9.4773     | 9.5257     | 9.5575     |   1.0 |  2.35
Other   |            | 1.755      |            |       |  0.43

Nlocal:          91125 ave       91819 max       90349 min
Histogram: 1 1 0 0 0 0 0 0 0 2
Nghost:        40017.5 ave       40791 max       39324 min
Histogram: 2 0 0 0 0 0 0 0 1 1
Neighs:    5.84458e+06 ave 5.89418e+06 max 5.78593e+06 min
Histogram: 1 1 0 0 0 0 0 0 0 2

Total # of neighbors = 23378340
Ave neighs/atom = 64.138107
Neighbor list builds = 32
Dangerous builds = 0
if '$(time)>25' then 'write_data NiCoCrFe_pka_5keV_final.lmp' 'quit' 
No /omp style for force computation currently active
Per MPI rank memory allocation (min/avg/max) = 80.35 | 80.59 | 80.79 Mbytes
     Time         Step          Temp          Press          TotEng    
 8.8485557          31000   364.28118     -26410.427     -1554641.1    
 9.0046166          31100   364.77801     -26392.954     -1554641.1    
 9.161623           31200   364.43621     -26361.031     -1554641.1    
 9.3163312          31300   364.42139     -26364.745     -1554641.1    
 9.4729937          31400   363.78627     -26419.731     -1554641.1    
 9.6286851          31500   364.28349     -26433.768     -1554641.1    
 9.7874359          31600   364.68448     -26444.405     -1554641.2    
 9.9418007          31700   364.27938     -26370.455     -1554641.1    
 10.100336          31800   364.15077     -26348.241     -1554641.2    
 10.258206          31900   364.28986     -26419.402     -1554641.2    
 10.416834          32000   364.62621     -26428.063     -1554641.1    
Loop time of 442.646 on 16 procs for 1000 steps with 364500 atoms

Performance: 0.319 ns/day, 75.191 hours/ns, 2.259 timesteps/s, 823.457 katom-step/s
93.9% CPU use with 4 MPI tasks x 4 OpenMP threads

MPI task timing breakdown:
Section |  min time  |  avg time  |  max time  |%varavg| %total
---------------------------------------------------------------
Pair    | 401.87     | 403.63     | 407.05     |  10.1 | 91.19
Neigh   | 4.5277     | 4.5653     | 4.6068     |   1.6 |  1.03
Comm    | 19.355     | 22.792     | 24.537     |  42.5 |  5.15
Output  | 0.31734    | 0.34105    | 0.36354    |   2.9 |  0.08
Modify  | 9.4461     | 9.5666     | 9.6789     |   3.3 |  2.16
Other   |            | 1.748      |            |       |  0.39

Nlocal:          91125 ave       91357 max       90961 min
Histogram: 1 1 0 0 1 0 0 0 0 1
Nghost:        40017.5 ave       40182 max       39787 min
Histogram: 1 0 0 0 0 1 0 0 1 1
Neighs:    5.84509e+06 ave 5.86618e+06 max 5.83209e+06 min
Histogram: 2 0 0 0 0 1 0 0 0 1

Total # of neighbors = 23380370
Ave neighs/atom = 64.143676
Neighbor list builds = 33
Dangerous builds = 0
