LAMMPS (2 Aug 2023 - Update 2)
OMP_NUM_THREADS environment is not set. Defaulting to 1 thread. (src/comm.cpp:98)
  using 1 OpenMP thread(s) per MPI task
Loaded 1 plugins from C:\Users\Ratish Panda\AppData\Local\LAMMPS 64-bit 2Aug2023-MSMPI with Python\plugins
# Tensile Test Simulation in LAMMPS with irradiated + relaxed file as input

# Initialize
units metal
boundary p p p
atom_style atomic

# Specify the number of OpenMP threads
package omp 4
set 4 OpenMP thread(s) per MPI task
using multi-threaded neighbor list subroutines

# Read data file (output from previous steps)
read_data Ni_5KeV_Relaxed.lmp
Reading data file ...
  orthogonal box = (-0.10479137 -0.10479137 -0.10479137) to (158.50479 158.50479 158.50479)
  2 by 1 by 2 MPI processor grid
  reading atoms ...
  364500 atoms
  reading velocities ...
  364500 velocities
  read_data CPU = 4.199 seconds

# Define potential (EAM potential for Nickel)
pair_style eam/alloy
pair_coeff * * FeNiCrCoCu-heafixed.setfl Ni

neighbor	 1 bin
neigh_modify	 delay 5

# Define timesteps
reset_timestep 0
timestep 0.01

#--------------------------
# Store final cell length for strain calculations
variable tmp equal "lx"
variable L0 equal ${tmp}
variable L0 equal 158.609582731322
print "Initial Length, L0: ${L0}"
Initial Length, L0: 158.609582731322

fix 1 all npt temp 300 300 1 x 0 0 1 y 0 0 1 drag 1
variable srate equal 2.0e9
variable srate1 equal "v_srate / 1.0e12" # adjusting strain rate unit from per second to per picosecond
fix 2 all deform 1 z erate ${srate1} units box remap x
fix 2 all deform 1 z erate 0.002 units box remap x

# Output strain and stress info to file
# for units metal, pressure is in [bars] = 100 [kPa] = 1/10000 [GPa]
# p2, p3, p4 are in GPa
variable strain equal "(lz - v_L0)/v_L0"
variable p1 equal "v_strain"
variable p2 equal "-pxx/10000"
variable p3 equal "-pyy/10000"
variable p4 equal "-pzz/10000"
fix def1 all print 10 "${p1} ${p2} ${p3} ${p4}" file Ni_Tensile_5KeV.def1.txt screen no

# dumping data
dump 1 all custom 1000 dump.Ni_Tensile_5KeV_*.dump id type x y z
dump_modify 1 sort id

# Display thermo
thermo 100
thermo_style custom time step v_strain temp v_p2 v_p3 v_p4 ke pe press

# run tensile test for 100 ps
run 10000
No /omp style for force computation currently active
Neighbor list info ...
  update: every = 1 steps, delay = 5 steps, check = yes
  max neighbors/atom: 2000, page size: 100000
  master list distance cutoff = 6.80375
  ghost atom cutoff = 6.80375
  binsize = 3.401875, bins = 47 47 47
  1 neighbor lists, perpetual/occasional/extra = 1 0 0
  (1) pair eam/alloy, perpetual
      attributes: half, newton on, omp
      pair build: half/bin/atomonly/newton/omp
      stencil: half/bin/3d
      bin: standard
Per MPI rank memory allocation (min/avg/max) = 65.62 | 65.62 | 65.62 Mbytes
     Time         Step        v_strain         Temp           v_p2           v_p3           v_p4          KinEng         PotEng         Press     
 0                      0   2.8670862e-15  300.71354      0.16158022    -0.32322088     0.36015444     14168.177     -1619698.1     -661.71259    
 1                    100   0.002          299.87186      0.001702917    0.0075768536   0.73058325     14128.521     -1619621.7     -2466.2101    
 2                    200   0.004          300.10885     -0.0047386997   0.0051251877   1.0821031      14139.687     -1619580.9     -3608.2986    
 3                    300   0.006          300.84133      0.0086473298  -0.0036511862   1.4441704      14174.198     -1619561.9     -4830.5551    
 4                    400   0.008          301.17566      0.0016704589  -0.0019356041   1.8182611      14189.95      -1619510.2     -6059.9864    
 5                    500   0.01           299.91154      0.0038312431  -0.0025115334   2.2027267      14130.39      -1619367.6     -7346.8213    
 6                    600   0.012          299.84805     -0.00042387444 -0.0017274671   2.6042875      14127.399     -1619257.6     -8673.7873    
 7                    700   0.014          300.69511      0.0031156558  -0.0037237273   3.0145164      14167.308     -1619169.1     -10046.361    
 8                    800   0.016          299.8017       0.0013829314  -0.00045849215  3.4248303      14125.215     -1618982.2     -11419.182    
 9                    900   0.018          300.23949      0.0084083011  -0.0048892732   3.8489478      14145.842     -1618834.6     -12841.556    
 10                  1000   0.02           300.07718     -0.0036074994   0.0080551768   4.2675456      14138.194     -1618638.2     -14239.978    
 11                  1100   0.022          300.72823      0.00080235829 -0.00091186886  4.6858613      14168.869     -1618459.6     -15619.173    
 12                  1200   0.024          300.2755      -0.0051199355   0.0068131133   5.102802       14147.538     -1618208.8     -17014.984    
 13                  1300   0.026          300.15944      0.0032524026   0.0037906977   5.5132789      14142.07      -1617953       -18401.073    
 14                  1400   0.028          300.37221      0.0077851128  -0.0041915589   5.9139085      14152.095     -1617693.3     -19725.007    
 15                  1500   0.03           299.76527      0.011403562   -0.0068792628   6.3088609      14123.499     -1617375       -21044.617    
 16                  1600   0.032          300.36403      0.0016358395  -0.00078872621  6.6797525      14151.709     -1617093.1     -22268.665    
 17                  1700   0.034          299.76957      0.0010963371  -8.7774467e-05  7.0385996      14123.702     -1616737.6     -23465.36     
 18                  1800   0.036          300.01922     -0.0021938527   0.0011280546   7.3790687      14135.464     -1616404.8     -24593.343    
 19                  1900   0.038          300.32488      0.0017141108  -0.0005615441   7.7071407      14149.865     -1616055.3     -25694.311    
 20                  2000   0.04           299.8901       0.00012967267 -0.0013217158   7.9875291      14129.38      -1615656.9     -26621.124    
 21                  2100   0.042          300.08234      0.0080958912  -0.0054078087   8.2642307      14138.438     -1615274.4     -27556.396    
 22                  2200   0.044          299.92444      0.0037895414  -0.0012010462   8.4783507      14130.998     -1614862.4     -28269.797    
 23                  2300   0.046          300.2591       0.0049458242  -0.0027745969   8.6751602      14146.766     -1614465.4     -28924.438    
 24                  2400   0.048          300.38711     -0.00049720598 -3.9252645e-05  8.8827744      14152.797     -1614051.3     -29607.46     
 25                  2500   0.05           299.93475      0.0061736434  -0.0014158429   9.1331975      14131.484     -1613604.1     -30459.851    
 26                  2600   0.052          300.41973     -0.002919643   -0.00045854193  9.343763       14154.334     -1613191.8     -31134.616    
 27                  2700   0.054          300.34696      0.0022252318   0.0023973617   9.5956385      14150.905     -1612742       -32000.87     
 28                  2800   0.056          300.55836     -0.0073644148   0.0088500529   9.8443036      14160.865     -1612295.7     -32819.298    
 29                  2900   0.058          299.77969      0.0023619853  -0.00057897571  10.102983      14124.178     -1611792       -33682.554    
 30                  3000   0.06           300.32221     -0.0026791238   0.0039547693   10.356098      14149.739     -1611337.2     -34524.577    
 31                  3100   0.062          299.70528     -0.0010423198   0.00034944155  10.618366      14120.672     -1610818.2     -35392.245    
 32                  3200   0.064          300.59579     -0.002162453   -0.00037832174  10.872234      14162.629     -1610354.7     -36232.309    
 33                  3300   0.066          299.98771      0.0074477493  -0.003225751    11.14206       14133.979     -1609811.9     -37154.274    
 34                  3400   0.068          300.16956      0.0006012039  -0.0029402721   11.399753      14142.547     -1609294.1     -37991.379    
 35                  3500   0.07           299.97193      0.001807696   -0.0022459922   11.66362       14133.235     -1608745.2     -38877.272    
 36                  3600   0.072          300.51161     -0.004445673    0.0075951048   11.923361      14158.662     -1608218.9     -39755.035    
 37                  3700   0.074          299.97516     -0.001729023    0.0083478067   12.187944      14133.388     -1607629.9     -40648.542    
 38                  3800   0.076          299.87731      0.0027862564   0.0045207953   12.455359      14128.778     -1607052.3     -41542.22     
 39                  3900   0.078          299.68133      0.006178456   -0.0038211014   12.716679      14119.544     -1606457.4     -42396.788    
 40                  4000   0.08           300.32282      0.0036033474  -0.0011294919   12.97717       14149.768     -1605887       -43265.478    
 41                  4100   0.082          299.84771     -0.0028263471  -0.0032739635   13.23604       14127.383     -1605253.4     -44099.799    
 42                  4200   0.084          300.48553     -0.00094185305  0.0027864715   13.496057      14157.434     -1604658.5     -44993.006    
 43                  4300   0.086          299.77101      0.0049892052  -0.0021028664   13.758987      14123.769     -1603991.4     -45872.913    
 44                  4400   0.088          300.40317     -0.0039651001  -0.0041062908   14.013152      14153.553     -1603372.3     -46683.602    
 45                  4500   0.09           299.936       -0.001725697    0.0033114756   14.270145      14131.543     -1602692.1     -47572.436    
 46                  4600   0.092          300.37656     -0.0010815051   0.0037755303   14.527902      14152.3       -1602040.4     -48435.321    
 47                  4700   0.094          300.34965     -0.00056284043 -0.003424528    14.785315      14151.032     -1601357.4     -49271.092    
 48                  4800   0.096          300.01482      0.0064023561  -0.0056792938   15.043458      14135.256     -1600648       -50147.269    
 49                  4900   0.098          300.31485      0.0009163885  -0.0012133767   15.293185      14149.392     -1599956       -50976.294    
 50                  5000   0.1            300.13844     -0.0032318799   0.0040845445   15.541054      14141.081     -1599230.8     -51806.355    
 51                  5100   0.102          301.28892     -0.0036032341   0.0032912383   15.730922      14195.286     -1598562.2     -52435.368    
 52                  5200   0.104          304.59232      0.0036981095  -0.00037204092  15.751233      14350.926     -1598040.3     -52515.197    
 53                  5300   0.106          315.0506       0.00028261164  0.0033555656   15.45516       14843.67      -1597940.7     -51529.328    
 54                  5400   0.108          340.99612      0.0063060199   0.0046498224   14.63784       16066.098     -1598767.2     -48829.319    
 55                  5500   0.11           374.04041     -0.0022859312   0.005875954    13.177672      17622.986     -1600235.4     -43937.539    
 56                  5600   0.112          400.06386     -0.019477179    0.012353091    11.632333      18849.086     -1601703.5     -38750.697    
 57                  5700   0.114          415.7805       0.016472854   -0.018189197    10.299437      19589.579     -1602994.9     -34325.735    
 58                  5800   0.116          421.15044      0.015622872    0.0060784519   9.0382573      19842.584     -1603900.8     -30199.862    
 59                  5900   0.118          419.62687      0.011861613    0.0026219944   8.0918909      19770.801     -1604580.5     -27021.248    
 60                  6000   0.12           415.83934      0.00070630345 -0.012790197    7.0360816      19592.351     -1605162.8     -23413.326    
 61                  6100   0.122          412.47911      0.016114749    0.0029895565   6.1445298      19434.033     -1605795.7     -20545.447    
 62                  6200   0.124          405.672        0.0069095166  -0.011948877    5.5546275      19113.315     -1606257.9     -18498.627    
 63                  6300   0.126          395.21574     -0.0016635806   0.0088967937   5.1715924      18620.666     -1606498.1     -17262.752    
 64                  6400   0.128          387.44812     -0.0076688372   0.005390856    5.0304292      18254.693     -1606805.2     -16760.504    
 65                  6500   0.13           377.47287     -0.0038226143   0.020057744    4.7875854      17784.708     -1606942.2     -16012.735    
 66                  6600   0.132          372.44157     -0.010728018    0.012375654    4.3999783      17547.657     -1607254       -14672.087    
 67                  6700   0.134          365.29413     -0.00097808798  0.011758687    4.130667       17210.904     -1607426.4     -13804.825    
 68                  6800   0.136          358.50891      0.0021748037  -0.0062455344   3.8242029      16891.217     -1607572       -12733.774    
 69                  6900   0.138          354.92109     -0.0026938184   0.00082729353  3.571609       16722.176     -1607835.7     -11899.142    
 70                  7000   0.14           349.57137     -0.0023178706  -0.0028058633   3.4684927      16470.123     -1607983.7     -11544.563    
 71                  7100   0.142          344.24693     -0.0044212782   0.0011927623   3.4698894      16219.261     -1608095.8     -11555.536    
 72                  7200   0.144          338.64156      0.0098592499  -0.0015909843   3.5956568      15955.163     -1608139.8     -12013.084    
 73                  7300   0.146          333.6778      -0.0058308781  -0.010578656    3.6399672      15721.294     -1608160.8     -12078.526    
 74                  7400   0.148          329.13667     -0.0046741177  -0.00028935502  3.6374962      15507.338     -1608163.4     -12108.443    
 75                  7500   0.15           326.40108      0.00033810568  0.00016104846  3.7193261      15378.45      -1608214.6     -12399.417    
 76                  7600   0.152          322.64787      0.0085401679  -0.010724617    3.8184054      15201.617     -1608181.5     -12720.737    
 77                  7700   0.154          319.52534     -0.008251699    0.013828075    3.9670195      15054.498     -1608140.3     -13241.986    
 78                  7800   0.156          316.94758      0.00094126371  0.001784134    4.0395928      14933.047     -1608092.8     -13474.394    
 79                  7900   0.158          315.04557      0.0035073265  -0.00015899422  4.0558371      14843.433     -1608052.8     -13530.618    
 80                  8000   0.16           313.01756     -0.0044919883   0.003438199    3.9873685      14747.883     -1607989       -13287.716    
 81                  8100   0.162          312.09605      0.0046425756  -0.0023713775   4.0152158      14704.466     -1607963.4     -13391.623    
 82                  8200   0.164          309.41761     -0.0025769579   0.009330055    4.2173684      14578.271     -1607825       -14080.405    
 83                  8300   0.166          308.17076     -0.0038234135  -0.010326253    4.3238566      14519.525     -1607727.3     -14365.69     
 84                  8400   0.168          306.47161      0.004498048    0.0062068121   4.3204427      14439.469     -1607585.9     -14437.158    
 85                  8500   0.17           305.71959     -0.0014173255  -0.01201988     4.3806227      14404.038     -1607474.7     -14557.285    
 86                  8600   0.172          306.37835      0.0074768098   0.01071504     4.3841506      14435.075     -1607427.6     -14674.475    
 87                  8700   0.174          308.7337      -0.010744256   -0.00082292403  4.2074241      14546.048     -1607470.5     -13986.19     
 88                  8800   0.176          309.55237      0.011880008    0.00096142592  4.079675       14584.62      -1607473.4     -13641.721    
 89                  8900   0.178          311.73131     -0.0068322322  -0.012078234    4.0933814      14687.281     -1607563.8     -13581.57     
 90                  9000   0.18           310.42778     -0.0055350545  -0.0024465063   4.3214042      14625.865     -1607490.8     -14378.075    
 91                  9100   0.182          308.90702      0.0094441161   0.0058660833   4.6117219      14554.214     -1607383.3     -15423.44     
 92                  9200   0.184          308.43281     -0.011401682    0.0041094436   4.6842933      14531.872     -1607303.4     -15590.003    
 93                  9300   0.186          307.85607     -0.00052117869 -0.001810227    4.7440739      14504.699     -1607207       -15805.808    
 94                  9400   0.188          307.53342     -0.0084761626  -0.0032549978   4.6804687      14489.497     -1607118.1     -15562.458    
 95                  9500   0.19           308.88571      0.00085363905 -0.0034779324   4.4971672      14553.21      -1607123.8     -14981.81     
 96                  9600   0.192          309.62677      0.0010194925   0.0025932513   4.3307618      14588.125     -1607121.3     -14447.915    
 97                  9700   0.194          309.2885      -0.011898529   -0.0011566925   4.2507001      14572.188     -1607076.6     -14125.483    
 98                  9800   0.196          309.62963      0.011033376    0.0053458353   4.1785204      14588.26      -1607067.5     -13982.999    
 99                  9900   0.198          309.58566      0.011219976    0.0018964098   4.1075769      14586.188     -1607043.9     -13735.644    
 100                10000   0.2            310.43184     -0.013113321   -0.0049444923   3.9323399      14626.056     -1607068.4     -13047.607    
Loop time of 32200.2 on 16 procs for 10000 steps with 364500 atoms

Performance: 0.268 ns/day, 89.445 hours/ns, 0.311 timesteps/s, 113.198 katom-step/s
17.7% CPU use with 4 MPI tasks x 4 OpenMP threads

MPI task timing breakdown:
Section |  min time  |  avg time  |  max time  |%varavg| %total
---------------------------------------------------------------
Pair    | 30885      | 30893      | 30903      |   4.5 | 95.94
Neigh   | 352.38     | 355.64     | 357.97     |  12.2 |  1.10
Comm    | 468.94     | 480.91     | 489.09     |  36.6 |  1.49
Output  | 7.2427     | 7.6679     | 8.1063     |  11.7 |  0.02
Modify  | 445.76     | 446.39     | 447.18     |   2.7 |  1.39
Other   |            | 16.64      |            |       |  0.05

Nlocal:          91125 ave       91205 max       91048 min
Histogram: 1 0 0 0 1 1 0 0 0 1
Nghost:        44547.8 ave       44582 max       44527 min
Histogram: 1 1 0 1 0 0 0 0 0 1
Neighs:    5.99707e+06 ave 6.01619e+06 max 5.98174e+06 min
Histogram: 2 0 0 0 0 0 0 1 0 1

Total # of neighbors = 23988271
Ave neighs/atom = 65.811443
Neighbor list builds = 1531
Dangerous builds = 772

# write output data
write_data Ni_5KeV_Strained.lmp
System init for write_data ...
No /omp style for force computation currently active

# end of simulation
print "Tensile test simulation completed."
Tensile test simulation completed.

Total wall time: 8:56:46
